 &FCI NORB=  24,NELEC=10,MS2=0,
  ORBSYM=1,1,1,1,1,1,1,1,1,1,1,1,1,1,1,1,1,1,1,1,1,1,1,1,
  ISYM=1,
 &END
 4.742572619174027    1    1    1    1
 -0.4750301925592199    1    1    2    1
 1.134657996097119    1    1    2    2
 1.088982544261357    1    1    3    3
 0.007150097272407095    1    1    4    1
 -0.01353328188548068    1    1    4    2
 1.991874946612301e-16    1    1    4    3
 0.6211567707041792    1    1    4    4
 -1.293910320760896e-11    1    1    5    1
 2.451047907887325e-11    1    1    5    2
 1.261406525698351e-15    1    1    5    3
 -2.088454876288497e-12    1    1    5    4
 0.6195153243278416    1    1    5    5
 -0.007759063524524038    1    1    6    1
 0.01252958066257744    1    1    6    2
 -2.238687120770519e-16    1    1    6    3
 0.43867062991546    1    1    6    4
 -5.760474886682099e-10    1    1    6    5
 0.5406387946490787    1    1    6    6
 3.874047778711386e-12    1    1    7    1
 -6.234671446877165e-12    1    1    7    2
 -9.093610297000402e-16    1    1    7    3
 5.7640686117978e-10    1    1    7    4
 0.4388294873849474    1    1    7    5
 -3.337116999259254e-13    1    1    7    6
 0.5414665205075603    1    1    7    7
 -0.01581469007628584    1    1    8    1
 0.01953546448607787    1    1    8    2
 -8.003882078170258e-16    1    1    8    3
 0.02845295431189826    1    1    8    4
 -4.720299394524647e-11    1    1    8    5
 0.0271092585770959    1    1    8    6
 -9.544950054838021e-12    1    1    8    7
 0.1442170752002875    1    1    8    8
 -2.247841276288396e-12    1    1    9    1
 2.772556887633893e-12    1    1    9    2
 2.840614981808755e-15    1    1    9    3
 -5.194402307850858e-11    1    1    9    4
 -0.03087325871169325    1    1    9    5
 -1.035922479229857e-11    1    1    9    6
 -0.02852379324529131    1    1    9    7
 1.173022673271221e-13    1    1    9    8
 0.1434368237554758    1    1    9    9
 -4.549467715653394e-16    1    1   10    1
 5.14147764526568e-16    1    1   10    2
 -0.5077527714813228    1    1   10    3
 -5.746000005275577e-16    1    1   10    4
 -6.176599901889243e-15    1    1   10    5
 -2.221552102581707e-16    1    1   10    6
 -4.158802259705977e-15    1    1   10    7
 8.422557193837337e-16    1    1   10    8
 -2.827025841259953e-15    1    1   10    9
 0.9475843612782353    1    1   10   10
 -0.001479323182215168    1    1   11    1
 0.003460900915067108    1    1   11    2
 2.883723305314545e-16    1    1   11    3
 -0.3738372190193897    1    1   11    4
 6.311783640458806e-10    1    1   11    5
 -0.3487939656076673    1    1   11    6
 1.312525186341479e-10    1    1   11    7
 -0.05187559215291466    1    1   11    8
 -4.762785320724781e-13    1    1   11    9
 2.04154524583791e-16    1    1   11   10
 1.011949656327658    1    1   11   11
 2.807285484631381e-13    1    1   12    1
 -5.48783854591423e-13    1    1   12    2
 6.604482603429738e-15    1    1   12    3
 -6.30001818206374e-10    1    1   12    4
 -0.3728928037004609    1    1   12    5
 -1.310167057495072e-10    1    1   12    6
 -0.3495272059335193    1    1   12    7
 -1.442843385680264e-12    1    1   12    8
 0.05590091272331554    1    1   12    9
 9.994135875825462e-16    1    1   12   10
 -1.491404378714869e-13    1    1   12   11
 1.01182433417901    1    1   12   12
 -0.415727134462698    1    1   13    1
 0.4473417154273126    1    1   13    2
 1.039133953100644e-15    1    1   13    3
 -0.009802881888837402    1    1   13    4
 1.756317395136189e-11    1    1   13    5
 0.01387390486586365    1    1   13    6
 -6.906623678723635e-12    1    1   13    7
 0.0285377397394331    1    1   13    8
 4.094251924716251e-12    1    1   13    9
 -3.628764772175558e-16    1    1   13   10
 0.0008487955764161664    1    1   13   11
 9.486146513467233e-15    1    1   13   12
 0.8895997284956062    1    1   13   13
 2.52704685848696e-09    1    1   14    1
 -2.702682037837867e-09    1    1   14    2
 2.759144799031696e-15    1    1   14    3
 -6.917591011495125e-10    1    1   14    4
 -0.0001956777274490272    1    1   14    5
 -2.849565993594803e-10    1    1   14    6
 0.0008505142585683083    1    1   14    7
 -3.148417375732875e-10    1    1   14    8
 7.240538221753716e-05    1    1   14    9
 -5.092653086917677e-15    1    1   14   10
 1.488303722574268e-09    1    1   14   11
 -0.0005697357474316328    1    1   14   12
 -4.568518140332881e-09    1    1   14   13
 0.1390354725210038    1    1   14   14
 -0.002490386640512605    1    1   15    1
 0.002663468630810709    1    1   15    2
 0.0006816793784701263    1    1   15    4
 -2.000520061006163e-10    1    1   15    5
 0.0002815750194256386    1    1   15    6
 8.625481829845496e-10    1    1   15    7
 0.0003103099605832501    1    1   15    8
 7.355527969322715e-11    1    1   15    9
 -0.001467656728178595    1    1   15   11
 -5.771383147823345e-10    1    1   15   12
 0.004502248674097836    1    1   15   13
 -2.225400803183417e-11    1    1   15   14
 0.139057403704122    1    1   15   15
 -9.522384150601847e-16    1    1   16    1
 1.016534055041356e-15    1    1   16    2
 4.509044471955412e-10    1    1   16    3
 -1.195175857527309e-15    1    1   16    5
 -2.682652194483154e-15    1    1   16    7
 1.429681206771007e-16    1    1   16    9
 -8.204989895356676e-10    1    1   16   10
 4.868972012344979e-15    1    1   16   12
 1.724224376678126e-15    1    1   16   13
 0.1390257056769197    1    1   16   16
 -2.589529955978115e-16    1    1   17    1
 2.763801043592307e-16    1    1   17    2
 0.0007929267663024303    1    1   17    3
 2.600371119453896e-15    1    1   17    5
 -4.874123888130425e-15    1    1   17    7
 -7.095305474688939e-16    1    1   17    9
 -0.001442869112679327    1    1   17   10
 7.73888912273333e-16    1    1   17   12
 4.710311970218495e-16    1    1   17   13
 1.475244493671629e-12    1    1   17   16
 0.1390282999365216    1    1   17   17
 1.77349399783477e-10    1    1   18    1
 -1.900492195405208e-10    1    1   18    2
 1.07375500037512e-15    1    1   18    3
 -4.163273284448965e-11    1    1   18    4
 -0.01054368567031639    1    1   18    5
 1.90393324576144e-11    1    1   18    6
 0.007709295329864222    1    1   18    7
 -1.884501820768362e-11    1    1   18    8
 0.002452966889016933    1    1   18    9
 -1.612285520859946e-15    1    1   18   10
 2.392579205790845e-11    1    1   18   11
 0.009717306246144499    1    1   18   12
 -3.20105800622679e-10    1    1   18   13
 0.0001584609691658073    1    1   18   14
 1.586245395968478e-10    1    1   18   15
 -1.872459578238654e-16    1    1   18   16
 -1.158713566375412e-15    1    1   18   17
 0.1420060639844052    1    1   18   18
 -0.066825151771462    1    1   19    1
 0.0716029441076201    1    1   19    2
 0.008737798153423279    1    1   19    4
 -4.310836641208643e-11    1    1   19    5
 -0.005943280473841013    1    1   19    6
 2.290454174242997e-11    1    1   19    7
 0.007030613058023775    1    1   19    8
 7.346256467811751e-12    1    1   19    9
 1.900938471183387e-16    1    1   19   10
 -0.008752614598597644    1    1   19   11
 2.616638752598977e-11    1    1   19   12
 0.1206277918218384    1    1   19   13
 -8.29420150150118e-10    1    1   19   14
 0.0008177910708132207    1    1   19   15
 2.815905547430636e-16    1    1   19   16
 -5.161671632237477e-11    1    1   19   18
 0.1614565260606308    1    1   19   19
 -3.490692837903186e-06    1    1   20    1
 -1.65090803604847e-06    1    1   20    2
 -1.401442732361058e-16    1    1   20    3
 -0.0002271735845524968    1    1   20    4
 4.100238863811924e-13    1    1   20    5
 -3.945437128727509e-05    1    1   20    6
 2.182583582983725e-14    1    1   20    7
 0.0001720194518816637    1    1   20    8
 2.427506173367228e-14    1    1   20    9
 0.0003807266015944345    1    1   20   11
 -5.111781268410447e-14    1    1   20   12
 -7.848959830618767e-06    1    1   20   13
 -3.336587253970135e-10    1    1   20   14
 0.000329062634875209    1    1   20   15
 8.456969005635902e-14    1    1   20   18
 -3.720158192208534e-05    1    1   20   19
 0.9261165559780433    1    1   20   20
 -3.134647893191473e-15    1    1   21    1
 -5.917011736789333e-16    1    1   21    2
 3.78608916184482e-16    1    1   21    3
 2.896220901169927e-12    1    1   21    4
 0.00160176092437825    1    1   21    5
 -1.1174227240789e-12    1    1   21    6
 -0.002247330963592084    1    1   21    7
 -4.315650353084826e-13    1    1   21    8
 0.003074879900613003    1    1   21    9
 -1.707595304058079e-16    1    1   21   10
 5.627484318942567e-14    1    1   21   11
 0.0004295355061362816    1    1   21   12
 -1.040548156771316e-14    1    1   21   13
 -4.980928219558048e-05    1    1   21   14
 -5.05286805195631e-11    1    1   21   15
 1.229492727693125e-16    1    1   21   16
 3.30655163774662e-16    1    1   21   17
 -0.000633615040554355    1    1   21   18
 -1.641764288734687e-12    1    1   21   19
 0.9260965075492541    1    1   21   21
 1.653263358510921e-13    1    1   22    3
 2.751661193925163e-16    1    1   22    8
 -2.658821678960774e-13    1    1   22   10
 -2.363555186423153e-16    1    1   22   12
 9.085546695444077e-16    1    1   22   14
 0.0002327553769102274    1    1   22   16
 -1.325264034118924e-10    1    1   22   17
 -5.827735216171057e-16    1    1   22   18
 1.67620777195579e-16    1    1   22   19
 0.9261203906302186    1    1   22   22
 -0.0002256809468999582    1    1   23    3
 -2.267829258366829e-16    1    1   23    7
 -1.874859421791977e-16    1    1   23    9
 0.0003674405988411759    1    1   23   10
 7.873130072536385e-16    1    1   23   14
 1.313747618789216e-10    1    1   23   16
 0.0002307282911727613    1    1   23   17
 3.688252915427309e-16    1    1   23   18
 -1.094935079145154e-16    1    1   23   21
 -4.504680681301891e-16    1    1   23   22
 0.9261206455384291    1    1   23   23
 -0.0004050406359327603    1    1   24    1
 -0.0004798280222341404    1    1   24    2
 -0.0009112280960709456    1    1   24    4
 1.649414318625264e-12    1    1   24    5
 0.001278712843991028    1    1   24    6
 -6.323877379567967e-13    1    1   24    7
 0.001712905783876341    1    1   24    8
 2.374228657884003e-13    1    1   24    9
 -0.000252981673161627    1    1   24   11
 2.810858368223476e-14    1    1   24   12
 -0.0005232678398499031    1    1   24   13
 1.886953694369874e-11    1    1   24   14
 -1.859888065180957e-05    1    1   24   15
 1.175351877512464e-12    1    1   24   18
 -0.0004517281794070599    1    1   24   19
 -8.728937942864741e-07    1    1   24   20
 0.9261164883457549    1    1   24   24
 -0.47503019255922    2    1    1    1
 0.07707717108524638    2    1    2    1
 -0.02085302542335467    2    1    2    2
 -0.01372564805667451    2    1    3    3
 -0.001242180086227795    2    1    4    1
 0.0002828029799247913    2    1    4    2
 -0.006357577796663722    2    1    4    4
 2.248615304316143e-12    2    1    5    1
 -5.112605589322783e-13    2    1    5    2
 3.881291447140075e-14    2    1    5    4
 -0.006328957447224962    2    1    5    5
 0.001203858537172463    2    1    6    1
 -0.0003797339736228419    2    1    6    2
 -0.005841415821783346    2    1    6    4
 7.669878626935929e-12    2    1    6    5
 -0.005391196039526092    2    1    6    6
 -6.004906824742818e-13    2    1    7    1
 1.900277294451085e-13    2    1    7    2
 -7.67603596243695e-12    2    1    7    4
 -0.005843101124466626    2    1    7    5
 5.179025365867439e-15    2    1    7    6
 -0.005398939620980103    2    1    7    7
 0.002571671600454753    2    1    8    1
 -0.0007065849480477755    2    1    8    2
 -0.0006468611370702299    2    1    8    4
 1.073064632723067e-12    2    1    8    5
 -0.0006173582950164517    2    1    8    6
 2.174643147134583e-13    2    1    8    7
 -9.496411105377149e-05    2    1    8    8
 3.654604022706562e-13    2    1    9    1
 -1.004555651248841e-13    2    1    9    2
 1.183239058566463e-12    2    1    9    4
 0.0007032012654176146    2    1    9    5
 2.358557937372208e-13    2    1    9    6
 0.0006495829601565187    2    1    9    7
 -2.153053787824654e-15    2    1    9    8
 -8.104122103919046e-05    2    1    9    9
 0.01561284489914778    2    1   10    3
 1.780294166509003e-16    2    1   10    5
 1.255421181697235e-16    2    1   10    7
 -0.01793436447899119    2    1   10   10
 0.0003711394878093173    2    1   11    1
 -5.649985470493587e-05    2    1   11    2
 0.01117956942452849    2    1   11    4
 -1.887384472207653e-11    2    1   11    5
 0.01029152239120578    2    1   11    6
 -3.87306274571826e-12    2    1   11    7
 0.001166013533149794    2    1   11    8
 1.137254800593826e-14    2    1   11    9
 -0.01993886244902598    2    1   11   11
 -6.28428666463543e-14    2    1   12    1
 1.113586968662461e-14    2    1   12    2
 -2.081181494856923e-16    2    1   12    3
 1.885192802408623e-11    2    1   12    4
 0.01115751699645504    2    1   12    5
 3.863240355376941e-12    2    1   12    6
 0.01030656307780053    2    1   12    7
 3.167134561376592e-14    2    1   12    8
 -0.001251716665390931    2    1   12    9
 3.873295166026595e-15    2    1   12   11
 -0.01994035881618907    2    1   12   12
 0.06776162379806973    2    1   13    1
 -0.01858124841840376    2    1   13    2
 0.000210519012850206    2    1   13    4
 -3.769923669768793e-13    2    1   13    5
 -0.0003797934600363497    2    1   13    6
 1.932161580100127e-13    2    1   13    7
 -0.0006442929953423105    2    1   13    8
 -9.202193509649669e-14    2    1   13    9
 8.470593763904671e-05    2    1   13   11
 -1.351363774863043e-14    2    1   13   12
 -0.01685488637160166    2    1   13   13
 -4.116174619992524e-10    2    1   14    1
 1.129314543096811e-10    2    1   14    2
 1.734418297425499e-11    2    1   14    4
 -7.485855460139377e-06    2    1   14    5
 1.916358186183966e-11    2    1   14    6
 -7.232734152382267e-06    2    1   14    7
 5.8830776195177e-12    2    1   14    8
 8.225036388778901e-07    2    1   14    9
 1.101413341164075e-16    2    1   14   10
 -3.353412112753524e-11    2    1   14   11
 1.362764098291165e-05    2    1   14   12
 1.02666405794894e-10    2    1   14   13
 -2.307526391354203e-06    2    1   14   14
 0.0004056459283263041    2    1   15    1
 -0.0001112931427968384    2    1   15    2
 -1.711704383516948e-05    2    1   15    4
 -7.555028987346858e-12    2    1   15    5
 -1.889913953028489e-05    2    1   15    6
 -7.32029067413704e-12    2    1   15    7
 -5.799016526107813e-06    2    1   15    8
 8.326738543672432e-13    2    1   15    9
 3.306891612895949e-05    2    1   15   11
 1.380608274441446e-11    2    1   15   12
 -0.0001011771414017918    2    1   15   13
 6.579532509322795e-13    2    1   15   14
 -2.955978618391876e-06    2    1   15   15
 1.551687969794541e-16    2    1   16    1
 -1.546930444317536e-11    2    1   16    3
 1.777593352460594e-11    2    1   16   10
 -1.10433402006396e-16    2    1   16   12
 -2.278801309113325e-06    2    1   16   16
 -2.720317694798745e-05    2    1   17    3
 3.125944430673811e-05    2    1   17   10
 -3.096140004337984e-14    2    1   17   16
 -2.333291707612437e-06    2    1   17   17
 -2.89003631857961e-11    2    1   18    1
 7.925246130437827e-12    2    1   18    2
 3.833700209407525e-13    2    1   18    4
 0.0001133455910550065    2    1   18    5
 4.585472460445197e-13    2    1   18    6
 0.0001040587361289525    2    1   18    7
 3.047964843302558e-13    2    1   18    8
 -1.27861907139398e-05    2    1   18    9
 -5.39705888573061e-13    2    1   18   11
 -0.000202961247694913    2    1   18   12
 7.192336328301056e-12    2    1   18   13
 8.38296475435793e-08    2    1   18   14
 1.290089983408977e-13    2    1   18   15
 -4.523295058271381e-06    2    1   18   18
 0.01088957619689164    2    1   19    1
 -0.002986213337701173    2    1   19    2
 -6.915913932292672e-05    2    1   19    4
 4.183194087044808e-13    2    1   19    5
 -0.0001552140381028125    2    1   19    6
 3.465091847008725e-13    2    1   19    7
 -0.0001143980509236288    2    1   19    8
 -4.931247111253326e-14    2    1   19    9
 0.0001977817087100336    2    1   19   11
 -5.484125540057892e-13    2    1   19   12
 -0.002710118802230741    2    1   19   13
 1.686676944928921e-11    2    1   19   14
 -1.662210446463716e-05    2    1   19   15
 1.155706650525673e-12    2    1   19   18
 -0.0004399885075198049    2    1   19   19
 4.523047943408521e-07    2    1   20    1
 3.019110564951322e-07    2    1   20    2
 -3.878452630334483e-05    2    1   20    4
 6.976073286022596e-14    2    1   20    5
 -3.578565501966454e-05    2    1   20    6
 1.742722499964753e-14    2    1   20    7
 -2.62779295313507e-06    2    1   20    8
 -3.350223214548493e-16    2    1   20    9
 2.575691248697707e-05    2    1   20   11
 -2.712654304779153e-15    2    1   20   12
 -1.230880263092917e-07    2    1   20   13
 8.717092110815114e-13    2    1   20   14
 -8.596992407760307e-07    2    1   20   15
 -3.739641237099721e-09    2    1   20   19
 -0.001976757883639191    2    1   20   20
 2.545807438281199e-16    2    1   21    1
 2.159560920135952e-16    2    1   21    2
 -6.524623016734337e-14    2    1   21    4
 -3.627964746720585e-05    2    1   21    5
 -1.239412404129714e-14    2    1   21    6
 -2.584719967793365e-05    2    1   21    7
 4.743354930914928e-16    2    1   21    8
 -3.104623694457528e-06    2    1   21    9
 1.277552570980104e-15    2    1   21   11
 1.421694657503304e-05    2    1   21   12
 1.074639947867335e-16    2    1   21   13
 1.152311136614091e-07    2    1   21   14
 1.1690478452089e-13    2    1   21   15
 1.685734224934588e-06    2    1   21   18
 4.382210596961487e-15    2    1   21   19
 -0.001976697666093493    2    1   21   21
 4.032798619737514e-14    2    1   22    3
 -1.644816803153008e-14    2    1   22   10
 -5.726814646005985e-07    2    1   22   16
 3.260987250860237e-13    2    1   22   17
 -0.001938881804722828    2    1   22   22
 -5.399553818069531e-05    2    1   23    3
 2.183797595323633e-05    2    1   23   10
 -3.421331143508086e-13    2    1   23   16
 -6.009176186206046e-07    2    1   23   17
 -0.001938688624476664    2    1   23   23
 1.548706056721631e-05    2    1   24    1
 5.059927554425957e-05    2    1   24    2
 2.065235610131193e-05    2    1   24    4
 -3.765556732822828e-14    2    1   24    5
 1.609486936243035e-05    2    1   24    6
 -8.285672171235569e-15    2    1   24    7
 -5.603588544867565e-07    2    1   24    8
 -8.733337860407341e-06    2    1   24   11
 1.33782846442035e-15    2    1   24   12
 2.215337104056507e-05    2    1   24   13
 -1.832129238053937e-13    2    1   24   14
 1.805690682064115e-07    2    1   24   15
 -1.184951149928812e-14    2    1   24   18
 4.487543354633853e-06    2    1   24   19
 -7.241789752484252e-08    2    1   24   20
 -0.001926245627652605    2    1   24   24
 1.134657996097119    2    2    1    1
 -0.02085302542335477    2    2    2    1
 0.7989433641977384    2    2    2    2
 0.7719189110598345    2    2    3    3
 0.000151753621267876    2    2    4    1
 -0.008384397094361517    2    2    4    2
 1.17471532331802e-16    2    2    4    3
 0.4705152449624017    2    2    4    4
 -2.728376635817408e-13    2    2    5    1
 1.519446065907476e-11    2    2    5    2
 7.395697608976314e-16    2    2    5    3
 -1.243942791369735e-12    2    2    5    4
 0.4695053850385424    2    2    5    5
 -0.0004302301903521609    2    2    6    1
 0.007213981870971395    2    2    6    2
 -1.544002898484992e-16    2    2    6    3
 0.3003866054539536    2    2    6    4
 -3.944597335320525e-10    2    2    6    5
 0.4133786416617347    2    2    6    6
 2.163168814821892e-13    2    2    7    1
 -3.579317888611055e-12    2    2    7    2
 -6.231839258143341e-16    2    2    7    3
 3.947412409489512e-10    2    2    7    4
 0.3005282182729903    2    2    7    5
 -2.44557401958616e-13    2    2    7    6
 0.413943110580432    2    2    7    7
 -0.0006635106954956549    2    2    8    1
 0.008985503084360172    2    2    8    2
 -4.388697633282336e-16    2    2    8    3
 0.01487657289285772    2    2    8    4
 -2.46746379091021e-11    2    2    8    5
 0.01428170189843397    2    2    8    6
 -5.03921791872729e-12    2    2    8    7
 0.1425243879666413    2    2    8    8
 -9.44638915602173e-14    2    2    9    1
 1.273435901744414e-12    2    2    9    2
 1.447465586188562e-15    2    2    9    3
 -2.720665761432837e-11    2    2    9    4
 -0.01616776588385123    2    2    9    5
 -5.414996505053008e-12    2    2    9    6
 -0.0149397126129393    2    2    9    7
 9.053217334365579e-14    2    2    9    8
 0.1419076745786811    2    2    9    9
 2.029363658516938e-16    2    2   10    2
 -0.2068675633603454    2    2   10    3
 -2.829221765027669e-16    2    2   10    4
 -2.698635392294817e-15    2    2   10    5
 -1.026593203918139e-16    2    2   10    6
 -1.690219533602285e-15    2    2   10    7
 4.855468284028634e-16    2    2   10    8
 -1.71148658827911e-15    2    2   10    9
 0.6286809273663423    2    2   10   10
 0.0001635228006195826    2    2   11    1
 0.001738000644186288    2    2   11    2
 -0.1547620066343974    2    2   11    4
 2.613187290983639e-10    2    2   11    5
 -0.1472777788229008    2    2   11    6
 5.540992246936416e-11    2    2   11    7
 -0.03033013520542565    2    2   11    8
 -2.685937200667535e-13    2    2   11    9
 0.6545437247319537    2    2   11   11
 -1.861632907163058e-14    2    2   12    1
 -2.66557189903729e-13    2    2   12    2
 2.582094349059602e-15    2    2   12    3
 -2.605817262653548e-10    2    2   12    4
 -0.1542469035670901    2    2   12    5
 -5.537084697421053e-11    2    2   12    6
 -0.1477009470786399    2    2   12    7
 -8.550559126405351e-13    2    2   12    8
 0.03275299761348396    2    2   12    9
 4.266521598403218e-16    2    2   12   10
 -7.332532178412872e-14    2    2   12   11
 0.6543943771038949    2    2   12   12
 -0.01693945209195646    2    2   13    1
 0.1742557511979917    2    2   13    2
 5.363682157149639e-16    2    2   13    3
 -0.006481811420564089    2    2   13    4
 1.162145943034042e-11    2    2   13    5
 0.008373208594509768    2    2   13    6
 -4.098051818989218e-12    2    2   13    7
 0.01882128933929871    2    2   13    8
 2.705528542054338e-12    2    2   13    9
 -1.355816108250187e-16    2    2   13   10
 0.001719540824265949    2    2   13   11
 -1.561378458974896e-13    2    2   13   12
 0.6324476491439815    2    2   13   13
 1.035020560234537e-10    2    2   14    1
 -1.045556398903111e-09    2    2   14    2
 9.536015966504416e-16    2    2   14    3
 -3.591980921388081e-10    2    2   14    4
 -0.0003486936967699899    2    2   14    5
 6.933541216151011e-11    2    2   14    6
 0.0007051610564000587    2    2   14    7
 -2.203374718677103e-10    2    2   14    8
 8.820155178853735e-05    2    2   14    9
 -3.150935950340438e-15    2    2   14   10
 8.991682907416183e-10    2    2   14   11
 -0.0003216252827371252    2    2   14   12
 -3.002487552351673e-09    2    2   14   13
 0.1390334921398252    2    2   14   14
 -0.0001020007982324537    2    2   15    1
 0.00103038418002608    2    2   15    2
 0.0003534566449060165    2    2   15    4
 -3.545319402010803e-10    2    2   15    5
 -6.784180980853034e-05    2    2   15    6
 7.154118412849301e-10    2    2   15    7
 0.0002171532219500071    2    2   15    8
 8.955020787422679e-11    2    2   15    9
 -0.0008866889401574016    2    2   15   11
 -3.257693357776406e-10    2    2   15   12
 0.002958935122215261    2    2   15   13
 -1.210632315401204e-11    2    2   15   14
 0.1390454217147438    2    2   15   15
 3.918041663688259e-16    2    2   16    2
 1.583679701647775e-10    2    2   16    3
 -1.564740780866275e-15    2    2   16    7
 -5.068676035691413e-10    2    2   16   10
 2.896862923394359e-15    2    2   16   12
 1.135124536461076e-15    2    2   16   13
 0.1390240191965776    2    2   16   16
 1.065191084523637e-16    2    2   17    2
 0.0002784937692330278    2    2   17    3
 2.89860297863504e-15    2    2   17    5
 -4.578369232000505e-15    2    2   17    7
 -7.406347018183436e-16    2    2   17    9
 -0.0008913401409736256    2    2   17   10
 3.153395371990226e-16    2    2   17   12
 3.09935878762151e-16    2    2   17   13
 9.331263754536809e-13    2    2   17   16
 0.139025658699267    2    2   17   17
 7.240587094406947e-12    2    2   18    1
 -7.366878633810839e-11    2    2   18    2
 4.402437547577696e-16    2    2   18    3
 -3.457882255000267e-11    2    2   18    4
 -0.008505283508746188    2    2   18    5
 2.66893991388326e-11    2    2   18    6
 0.009583004547438779    2    2   18    7
 -1.417956606078085e-11    2    2   18    8
 0.002229404648165294    2    2   18    9
 -9.877170889328236e-16    2    2   18   10
 1.487623658396233e-11    2    2   18   11
 0.006208527302376237    2    2   18   12
 -2.103576196581549e-10    2    2   18   13
 0.0001601114845941025    2    2   18   14
 1.609705699353687e-10    2    2   18   15
 -2.032407360082956e-16    2    2   18   16
 -1.160384121988103e-15    2    2   18   17
 0.1419667785469116    2    2   18   18
 -0.002728385529639158    2    2   19    1
 0.02775199939847344    2    2   19    2
 0.007434993005300627    2    2   19    4
 -3.547983921824006e-11    2    2   19    5
 -0.008508549414668521    2    2   19    6
 2.902806148607205e-11    2    2   19    7
 0.005280592679256893    2    2   19    8
 6.519676529853987e-12    2    2   19    9
 1.351285796205159e-16    2    2   19   10
 -0.005439935157460303    2    2   19   11
 1.669838513746882e-11    2    2   19   12
 0.07927392088228806    2    2   19   13
 -5.716375793410129e-10    2    2   19   14
 0.0005637485288208086    2    2   19   15
 1.866208830414246e-16    2    2   19   16
 -3.398376711913121e-11    2    2   19   18
 0.1547730960647358    2    2   19   19
 -2.435144362067672e-07    2    2   20    1
 4.231025280988117e-07    2    2   20    2
 -1.133400163354207e-16    2    2   20    3
 -0.0004933866813069712    2    2   20    4
 8.865090883746994e-13    2    2   20    5
 -0.0003072856639270744    2    2   20    6
 1.497849049958304e-13    2    2   20    7
 0.0001378376129423976    2    2   20    8
 1.982803692099913e-14    2    2   20    9
 0.0003381533497201991    2    2   20   11
 -4.142883183029097e-14    2    2   20   12
 -7.300662370216905e-06    2    2   20   13
 -2.699130867902631e-10    2    2   20   14
 0.0002661950322458022    2    2   20   15
 6.335613716391135e-14    2    2   20   18
 -2.813393835366292e-05    2    2   20   19
 0.7755562673616094    2    2   20   20
 -3.898146281508707e-16    2    2   21    1
 1.475214500497594e-15    2    2   21    2
 2.426210740238356e-16    2    2   21    3
 2.03225414205369e-12    2    2   21    4
 0.001121144724463647    2    2   21    5
 -1.029784597945041e-12    2    2   21    6
 -0.002082204582409501    2    2   21    7
 -3.708606994336756e-13    2    2   21    8
 0.00264489723001988    2    2   21    9
 2.663555649371034e-14    2    2   21   11
 0.0002221884289224187    2    2   21   12
 -7.067346904679e-15    2    2   21   13
 -3.976516100053197e-05    2    2   21   14
 -4.03395291019411e-11    2    2   21   15
 2.641485310784546e-16    2    2   21   17
 -0.0005071237543719811    2    2   21   18
 -1.313800673066241e-12    2    2   21   19
 0.7755383313695187    2    2   21   21
 4.433193018765084e-13    2    2   22    3
 2.340377164034421e-16    2    2   22    8
 -2.156753639186591e-13    2    2   22   10
 -1.737795386954907e-16    2    2   22   12
 7.438072289867213e-16    2    2   22   14
 0.0001883024616406806    2    2   22   16
 -1.072158352300503e-10    2    2   22   17
 -4.685234753330059e-16    2    2   22   18
 1.403753064867649e-16    2    2   22   19
 0.7757949121862244    2    2   22   22
 -0.00059299156680288    2    2   23    3
 -2.064617787728988e-16    2    2   23    7
 -1.605923353639177e-16    2    2   23    9
 0.0002938206625778346    2    2   23   10
 6.361089946031465e-16    2    2   23   14
 1.063306323377432e-10    2    2   23   16
 0.0001867443859412523    2    2   23   17
 2.94656319582932e-16    2    2   23   18
 -4.079015338453754e-16    2    2   23   22
 0.7757960945745107    2    2   23   23
 -7.264162239374762e-05    2    2   24    1
 5.364535640079586e-05    2    2   24    2
 -0.0006387477769445078    2    2   24    4
 1.152762923103283e-12    2    2   24    5
 0.001197814303867977    2    2   24    6
 -5.96044018023805e-13    2    2   24    7
 0.001488758413429501    2    2   24    8
 2.065971177873975e-13    2    2   24    9
 -0.0001375475007592115    2    2   24   11
 1.682191868744332e-14    2    2   24   12
 -0.0001501904909511678    2    2   24   13
 1.364496093416531e-11    2    2   24   14
 -1.34496109992657e-05    2    2   24   15
 8.264708398963174e-13    2    2   24   18
 -0.000318500217100867    2    2   24   19
 -1.087255316323317e-06    2    2   24   20
 -2.330992806629642e-16    2    2   24   21
 0.7758691122375267    2    2   24   24
 0.03390860718607545    3    1    3    1
 0.03615584322537751    3    1    3    2
 -0.0004963370770431624    3    1    4    3
 8.982574577539622e-13    3    1    5    3
 0.0005763117854363934    3    1    6    3
 -2.875680118448182e-13    3    1    7    3
 0.0008784153104237633    3    1    8    3
 1.703217772066071e-16    3    1    9    1
 1.156629616794176e-16    3    1    9    2
 1.247156655049037e-13    3    1    9    3
 -0.03902452181799603    3    1   10    1
 -0.02124845900644728    3    1   10    2
 0.0004176590499075793    3    1   10    4
 -7.559023064349303e-13    3    1   10    5
 -0.0004089885189376531    3    1   10    6
 2.042185023467519e-13    3    1   10    7
 -0.0009751749685059307    3    1   10    8
 -1.386390091902679e-13    3    1   10    9
 6.81186075751425e-05    3    1   11    3