 &FCI NORB=  14,NELEC= 4,MS2=0,
  ORBSYM=1,1,1,1,1,1,1,1,1,1,1,1,1,1,
  ISYM=1,
 &END
 2.273135921388549    1    1    1    1
 -0.1901880605652207    1    1    2    1
 0.4808987350803366    1    1    2    2
 0.3313252207112941    1    1    3    3
 0.3313252207112944    1    1    4    4
 0.3313252207112943    1    1    5    5
 -0.1576659016277608    1    1    6    1
 0.182466492136502    1    1    6    2
 0.3772589481300882    1    1    6    6
 0.1725026396685238    1    1    7    3
 -0.02708928502864157    1    1    7    4
 0.5282833779277529    1    1    7    7
 0.1746166946656922    1    1    8    5
 0.5282833779277529    1    1    8    8
 0.02708928502864161    1    1    9    3
 0.172502639668524    1    1    9    4
 0.5282833779277534    1    1    9    9
 1.051426625809093e-16    1    1   10    2
 0.4150878958055796    1    1   10   10
 0.4150878958055799    1    1   11   11
 0.41508789580558    1    1   12   12
 0.4150878958055799    1    1   13   13
 -1.354567085205783e-16    1    1   14    4
 -2.233426480840887e-16    1    1   14    9
 0.4150878958055803    1    1   14   14
 -0.1901880605652206    2    1    1    1
 0.02530580716570976    2    1    2    1
 -0.00565981426575525    2    1    2    2
 -0.001026592673805807    2    1    3    3
 -0.001026592673805808    2    1    4    4
 -0.001026592673805808    2    1    5    5
 0.02050397578652604    2    1    6    1
 -0.004614989744745357    2    1    6    2
 -0.003935777579526813    2    1    6    6
 -0.002651861327872152    2    1    7    3
 0.0004164401629169308    2    1    7    4
 -0.007138291056804362    2    1    7    7
 -0.00268436042877147    2    1    8    5
 -0.007138291056804363    2    1    8    8
 -0.0004164401629169309    2    1    9    3
 -0.002651861327872157    2    1    9    4
 -0.007138291056804368    2    1    9    9
 -0.0005765609848720599    2    1   10   10
 -0.0005765609848721094    2    1   11   11
 -0.0005765609848720667    2    1   12   12
 -0.0005765609848721093    2    1   13   13
 -0.0005765609848721097    2    1   14   14
 0.4808987350803366    2    2    1    1
 -0.005659814265755252    2    2    2    1
 0.3434890616502999    2    2    2    2
 0.2786330499749396    2    2    3    3
 0.2786330499749399    2    2    4    4
 0.2786330499749398    2    2    5    5
 -0.004621777865076847    2    2    6    1
 0.07424455188917792    2    2    6    2
 0.2770500736412927    2    2    6    6
 0.08202317083768279    2    2    7    3
 -0.01288066697439869    2    2    7    4
 0.3288876304047499    2    2    7    7
 0.08302838150881339    2    2    8    5
 0.3288876304047499    2    2    8    8
 0.01288066697439872    2    2    9    3
 0.08202317083768292    2    2    9    4
 0.3288876304047502    2    2    9    9
 0.3419714741327989    2    2   10   10
 0.3419714741327992    2    2   11   11
 0.3419714741327992    2    2   12   12
 0.3419714741327992    2    2   13   13
 -1.037941716375522e-16    2    2   14    9
 0.3419714741327994    2    2   14   14
 0.002767512527192104    3    1    3    1
 0.005319316163647952    3    1    3    2
 0.001848224194362884    3    1    6    3
 0.00736943252604471    3    1    7    1
 0.006157679015473192    3    1    7    2
 0.00594592819330356    3    1    7    6
 0.001157273063072981    3    1    9    1
 0.0009669830113067852    3    1    9    2
 0.0009337303121722973    3    1    9    6
 0.004401688074401717    3    1   10    3
 -0.0002688585627056741    3    1   10    4
 0.004774553291220329    3    1   10    7
 0.0004537949567739376    3    1   10    9
 -0.0002006465085652615    3    1   11    3
 -0.002461661563848669    3    1   11    4
 0.002911966779084181    3    1   11    5
 0.0001997588467705223    3    1   11    7
 0.003166970673981572    3    1   11    8
 -0.002678672277430198    3    1   11    9
 -6.315634342444192e-06    3    1   12    3
 -0.0001552255635520569    3    1   12    4
 1.940428560376442e-05    3    1   12    7
 -0.0001678405437929835    3    1   12    9
 0.0002368552621168703    3    1   13    3
 0.002905894047783834    3    1   13    4
 0.002469772866077074    3    1   13    5
 -0.0002358074125003109    3    1   13    7
 0.002686053389909018    3    1   13    8
 0.003162066606255262    3    1   13    9
 -4.523906313532754e-06    3    1   14    3
 -5.550221815523767e-05    3    1   14    4
 0.0001553374968102993    3    1   14    5
 4.503892515006096e-06    3    1   14    7
 0.0001689405595219884    3    1   14    8
 -6.039508244824586e-05    3    1   14    9
 0.005319316163647951    3    2    3    1
 0.05400677383049682    3    2    3    2
 -0.008079619975713498    3    2    6    3
 0.01231861055955869    3    2    7    1
 0.03141171182955067    3    2    7    2
 0.04370988982868907    3    2    7    6
 0.001934476789723057    3    2    9    1
 0.004932798805997156    3    2    9    2
 0.006864066929150498    3    2    9    6
 0.04711474109780016    3    2   10    3
 -0.002877805369142669    3    2   10    4
 0.02996736232785895    3    2   10    7
 0.002848232507364874    3    2   10    9
 -0.002147677923432764    3    2   11    3
 -0.02634910636344902    3    2   11    4
 0.03116907844511318    3    2   11    5
 0.001253781322406702    3    2   11    7
 0.01987741090740919    3    2   11    8
 -0.01681261843761407    3    2   11    9
 -6.760121841506872e-05    3    2   12    3
 -0.001661501704549871    3    2   12    4
 0.0001217905051914587    3    2   12    7
 -0.001053446905367698    3    2   12    9
 0.002535248787206428    3    2   13    3
 0.03110407720964712    3    2   13    4
 0.02643592803231733    3    2   13    5
 -0.001480039228588353    3    2   13    7
 0.01685894580240487    3    2   13    8
 0.0198466306510227    3    2   13    9
 -4.842293936100187e-05    3    2   14    3
 -0.000594084041062605    3    2   14    4
 0.001662699814546123    3    2   14    5
 2.826856684815066e-05    3    2   14    7
 0.001060351126120255    3    2   14    8
 -0.0003790681992963806    3    2   14    9
 0.3313252207112941    3    3    1    1
 -0.001026592673805807    3    3    2    1
 0.2786330499749397    3    3    2    2
 0.2609740612014135    3    3    3    3
 0.2325179706038383    3    3    4    4
 0.2325179706038382    3    3    5    5
 -0.0009289271011422086    3    3    6    1
 0.03935605701586356    3    3    6    2
 0.2370138487048351    3    3    6    6
 0.04908109449616053    3    3    7    3
 -0.007281825482593937    3    3    7    4
 0.2782934937285804    3    3    7    7
 0.04693842216797418    3    3    8    5
 0.2555464810563668    3    3    8    8
 0.007707544422966841    3    3    9    3
 0.04637014657363098    3    3    9    4
 0.003572121047027432    3    3    9    7
 0.2561074359807998    3    3    9    9
 0.00113429055643919    3    3   10    1
 0.02286725088880245    3    3   10    2
 0.001562901198267563    3    3   10    6
 0.2968358959513661    3    3   10   10
 -5.17054902576225e-05    3    3   11    1
 -0.001042380553498835    3    3   11    2
 -7.12432737995574e-05    3    3   11    6
 -0.000361854344587859    3    3   11   10
 0.2888784101165445    3    3   11   11
 -1.627503873847578e-06    3    3   12    1
 -3.281041104900149e-05    3    3   12    2
 -2.242483409724028e-06    3    3   12    6
 2.277976070436731e-05    3    3   12   10
 0.0006267501097657084    3    3   12   11
 0.2650831390331013    3    3   12   12
 6.10362848345659e-05    3    3   13    1
 0.001230488987772201    3    3   13    2
 8.409986503388191e-05    3    3   13    6
 0.0004271547322120929    3    3   13   10
 -1.464018353910409e-05    3    3   13   11
 -0.0007398536988848237    3    3   13   12
 0.2889119422489075    3    3   13   13
 -1.165785517492241e-06    3    3   14    1
 -2.350218800614393e-05    3    3   14    2
 -1.606297056665361e-06    3    3   14    6
 -8.158602737549404e-06    3    3   14   10
 0.0009643251157559273    3    3   14   11
 1.413111446020611e-05    3    3   14   12
 0.0003617704863428281    3    3   14   13
 0.2650882001112497    3    3   14   14
 0.002767512527192109    4    1    4    1
 0.00531931616364796    4    1    4    2
 0.001848224194362891    4    1    6    4
 -0.001157273063072981    4    1    7    1
 -0.0009669830113067842    4    1    7    2
 -0.0009337303121722966    4    1    7    6
 0.007369432526044722    4    1    9    1
 0.0061576790154732    4    1    9    2
 0.005945928193303575    4    1    9    6
 -0.0002688585627056741    4    1   10    3
 -0.00219537453741929    4    1   10    4
 8.154330367724987e-05    4    1   10    7
 -0.002404081249885311    4    1   10    9
 -0.002461661563848669    4    1   11    3
 0.0002006465085652616    4    1   11    4
 -0.000154502658865639    4    1   11    5
 -0.002678672277430199    4    1   11    7
 -0.0001680326139687435    4    1   11    8
 -0.0001997588467705229    4    1   11    9
 -0.000155225563552057    4    1   12    3
 -0.003815131509138123    4    1   12    4
 0.0004769182325719823    4    1   12    7
 -0.004125182299117528    4    1   12    9
 0.002905894047783835    4    1   13    3
 -0.0002368552621168705    4    1   13    4
 -5.796230039623141e-05    4    1   13    5
 0.003162066606255263    4    1   13    7
 -6.303811804099866e-05    4    1   13    8
 0.0002358074125003118    4    1   13    9
 -5.550221815523769e-05    4    1   14    3
 4.523906313532758e-06    4    1   14    4
 0.003817882603034308    4    1   14    5
 -6.039508244824588e-05    4    1   14    7
 0.004152218468754909    4    1   14    8
 -4.503892515006112e-06    4    1   14    9
 0.005319316163647959    4    2    4    1
 0.05400677383049687    4    2    4    2
 -0.008079619975713456    4    2    6    4
 -0.001934476789723056    4    2    7    1
 -0.004932798805997148    4    2    7    2
 -0.006864066929150501    4    2    7    6
 0.0123186105595587    4    2    9    1
 0.03141171182955069    4    2    9    2
 0.04370988982868915    4    2    9    6
 -0.002877805369142669    4    2   10    3
 -0.02349882617642589    4    2   10    4
 0.000511804472095901    4    2   10    7
 -0.015089154835365    4    2   10    9
 -0.02634910636344902    4    2   11    3
 0.002147677923432766    4    2   11    4
 -0.001653763885203461    4    2   11    5
 -0.01681261843761406    4    2   11    7
 -0.00105465242894201    4    2   11    8
 -0.001253781322406707    4    2   11    9
 -0.001661501704549871    4    2   12    3
 -0.04083636329262928    4    2   12    4
 0.002993365159946472    4    2   12    7
 -0.02589160180774291    4    2   12    9
 0.03110407720964712    4    2   13    3
 -0.00253524878720643    4    2   13    4
 -0.0006204162426871999    4    2   13    5
 0.0198466306510227    4    2   13    7
 -0.0003956571449887659    4    2   13    8
 0.001480039228588357    4    2   13    9
 -0.000594084041062605    4    2   14    3
 4.842293936100191e-05    4    2   14    4
 0.04086581042165421    4    2   14    5
 -0.0003790681992963806    4    2   14    7
 0.02606129363901237    4    2   14    8
 -2.826856684815076e-05    4    2   14    9
 0.0142280452987877    4    3    4    3
 -0.0002128594701864369    4    3    7    3
 0.00135547396126479    4    3    7    4
 -0.0035721210470274    4    3    7    7
 0.001355473961264787    4    3    9    3
 0.0002128594701864387    4    3    9    4
 0.01109302887389039    4    3    9    7
 0.003572121047027411    4    3    9    9
 -6.928335755284323e-05    4    3   10    1
 -0.001396749634020608    4    3   10    2
 -9.546323199521808e-05    4    3   10    6
 -0.0009697416585053813    4    3   10   10
 -0.0006343565054646444    4    3   11    1
 -0.0127886010167816    4    3   11    2
 -0.000874058711757125    4    3   11    6
 -0.004439463901729733    4    3   11   10
 -0.0007355078700131025    4    3   11   11
 -4.000076513349511e-05    4    3   12    1
 -0.0008064137771923096    4    3   12    2
 -5.511572269015141e-05    4    3   12    6
 0.0005598806075824775    4    3   12   10
 0.007689377036163869    4    3   12   11
 0.0009697416585053851    4    3   12   12
 0.0007488327479593315    4    3   13    1
 0.0150964373494327    4    3   13    2
 0.001031791715485705    4    3   13    6
 0.005240611429630582    4    3   13   10
 -0.0004498733984282181    4    3   13   11
 -0.009077005258846345    4    3   13   12
 -0.0002340278693239106    4    3   13   13
 -1.430261319084289e-05    4    3   14    1
 -0.0002883400927071312    4    3   14    2
 -1.970709459532034e-05    4    3   14    6
 -0.0001000950323897789    4    3   14   10
 0.009067872231032836    4    3   14   11
 0.0001733696816843496    4    3   14   12
 0.007700158214028146    4    3   14   13
 0.0009695357393370121    4    3   14   14
 0.3313252207112944    4    4    1    1
 -0.001026592673805807    4    4    2    1
 0.2786330499749399    4    4    2    2
 0.2325179706038383    4    4    3    3
 0.260974061201414    4    4    4    4
 0.2325179706038384    4    4    5    5
 -0.0009289271011422268    4    4    6    1
 0.03935605701586371    4    4    6    2
 0.2370138487048354    4    4    6    6
 0.04637014657363094    4    4    7    3
 -0.007707544422966818    4    4    7    4
 0.2561074359807999    4    4    7    7
 0.04693842216797421    4    4    8    5
 0.2555464810563671    4    4    8    8
 0.007281825482593964    4    4    9    3
 0.0490810944961606    4    4    9    4
 -0.003572121047027412    4    4    9    7
 0.2782934937285812    4    4    9    9
 -0.000565735818520086    4    4   10    1
 -0.01140521079492415    4    4   10    2
 -0.0007795085515334086    4    4   10    6
 0.2730410561141298    4    4   10   10
 5.170549025762254e-05    4    4   11    1
 0.001042380553498835    4    4   11    2
 7.124327379955767e-05    4    4   11    6
 0.0003618543445878593    4    4   11   10
 0.2750550551232383    4    4   11   11
 -0.0009831381890860495    4    4   12    1
 -0.01982002538993971    4    4   12    2
 -0.001354633383009738    4    4   12    6
 0.01376073694605698    4    4   12   10
 -0.0006267501097657089    4    4   12   11
 0.2888779788703382    4    4   12   12
 -6.103628483456594e-05    4    4   13    1
 -0.001230488987772202    4    4   13    2
 -8.409986503388222e-05    4    4   13    6
 -0.0004271547322120933    4    4   13   10
 -0.01175732115862314    4    4   13   11
 0.0007398536988848243    4    4   13   12
 0.2789455101049298    4    4   13   13
 1.165785517492242e-06    4    4   14    1
 2.350218800614396e-05    4    4   14    2
 1.606297056665362e-06    4    4   14    6
 8.158602737549411e-06    4    4   14   10
 -0.0007394821050391862    4    4   14   11
 -1.413111446020612e-05    4    4   14   12
 -0.0006271887615934864    4    4   14   13
 0.2888779872485343    4    4   14   14
 0.002767512527192109    5    1    5    1
 0.005319316163647957    5    1    5    2
 0.00184822419436289    5    1    6    5
 0.007459746423199663    5    1    8    1
 0.006233142626456968    5    1    8    2
 0.006018796754816662    5    1    8    6
 -0.00220631353698243    5    1   10    5
 -0.002399522659193741    5    1   10    8
 0.002911966779084182    5    1   11    3
 -0.0001545026588656391    5    1   11    4
 0.003154696550883479    5    1   11    7
 0.0003253119749722674    5    1   11    9
 0.003821447143480566    5    1   12    5
 0.004156095159636345    5    1   12    8
 0.002469772866077074    5    1   13    3
 -5.796230039623149e-05    5    1   13    4
 0.002663313255857585    5    1   13    7
 0.0003544278755137024    5    1   13    9
 0.0001553374968102994    5    1   14    3
 0.003817882603034308    5    1   14    4
 -0.0004772621386301201    5    1   14    7
 0.004128156970846818    5    1   14    9
 0.005319316163647958    5    2    5    1
 0.05400677383049685    5    2    5    2
 -0.00807961997571344    5    2    6    5
 0.0124695776419271    5    2    8    1
 0.03179666875827059    5    2    8    2
 0.04424556343458629    5    2    8    6
 -0.02361591492137434    5    2   10    5
 -0.01506054295680246    5    2   10    8
 0.03116907844511318    5    2   11    3
 -0.001653763885203461    5    2   11    4
 0.01980037268588307    5    2   11    7
 0.002041812339075105    5    2   11    9
 0.04090396451104433    5    2   12    5
 0.02608562559075553    5    2   12    8
 0.02643592803231733    5    2   13    3
 -0.0006204162426871997    5    2   13    4
 0.01671621792925357    5    2   13    7
 0.002224557548481717    5    2   13    9
 0.001662699814546123    5    2   14    3
 0.04086581042165421    5    2   14    4
 -0.002995523677575734    5    2   14    7
 0.0259102722592136    5    2   14    9
 0.0142280452987877    5    3    5    3
 0.00135547396126479    5    3    7    5
 0.001372085570842756    5    3    8    3
 0.01151289097364847    5    3    8    7
 0.0002128594701864386    5    3    9    5
 0.001807949059145591    5    3    9    8
 0.0007503976570690512    5    3   11    1
 0.01512798585261558    5    3   11    2
 0.001033947951653656    5    3   11    6
 0.005259480067119999    5    3   11   10
 -0.0003334057896910662    5    3   11   11
 0.009100545142844033    5    3   12   11
 0.000636446742974115    5    3   13    1
 0.01283074011886167    5    3   13    2
 0.0008769387804394173    5    3   13    6
 0.004444746673870874    5    3   13   10
 -9.164813083222786e-05    5    3   13   11
 0.007709318309555702    5    3   13   12
 0.000680970551735011    5    3   13   13
 4.002960971212717e-05    5    3   14    1
 0.0008069952827092304    5    3   14    2
 5.515546667483945e-05    5    3   14    6
 -0.0005602843378650071    5    3   14   10
 -0.007711439870904655    5    3   14   11
 0.009092109466638711    5    3   14   13
 -0.0003475647620439417    5    3   14   14
 0.01422804529878771    5    4    5    4
 -0.0002128594701864372    5    4    7    5
 0.001372085570842761    5    4    8    4
 -0.00180794905914559    5    4    8    7
 0.001355473961264791    5    4    9    5
 0.01151289097364849    5    4    9    8
 -3.981447661301179e-05    5    4   11    1
 -0.000802658208293835    5    4   11    2
 -5.485904193914356e-05    5    4   11    6
 -8.405713933021559e-05    5    4   11   10
 -0.01176938693391585    5    4   11   11
 -0.0003702722291604649    5    4   12   11
 -1.493656271358419e-05    5    4   13    1
 -0.0003011204889689767    5    4   13    2
 -2.05805925391309e-05    5    4   13    6
 -0.0003342249850503508    5    4   13   10
 0.001967554230004284    5    4   13   11
 -0.000313667635397795    5    4   13   12
 0.01175524562949951    5    4   13   13
 0.0009838471306951721    5    4   14    1
 0.01983431762357356    5    4   14    2
 0.001355610210052937    5    4   14    6
 -0.01377065982272023    5    4   14   10
 0.0001809209143592335    5    4   14   11
 -0.000482455475274825    5    4   14   13
 1.414130441634334e-05    5    4   14   14
 0.3313252207112943    5    5    1    1
 -0.001026592673805811    5    5    2    1
 0.2786330499749398    5    5    2    2
 0.2325179706038382    5    5    3    3
 0.2325179706038384    5    5    4    4
 0.2609740612014138    5    5    5    5
 -0.0009289271011422202    5    5    6    1
 0.03935605701586363    5    5    6    2
 0.2370138487048352    5    5    6    6
 0.0463701465736309    5    5    7    3
 -0.007281825482593939    5    5    7    4
 0.255546481056367    5    5    7    7
 0.04968259330965971    5    5    8    5
 0.2788544486530135    5    5    8    8
 0.00728182548259396    5    5    9    3
 0.04637014657363099    5    5    9    4
 0.2555464810563672    5    5    9    9
 -0.0005685547379191051    5    5   10    1
 -0.01146204009387824    5    5   10    2
 -0.0007833926467341795    5    5   10    6
 0.2730016004112055    5    5   10   10
 0.278945087236919    5    5   11   11
 0.000984765692959897    5    5   12    1
 0.01985283580098871    5    5   12    2
 0.001356875866419461    5    5   12    6
 -0.01378351670676134    5    5   12   10
 0.2889174345732624    5    5   12   12
 0.01177196134216212    5    5   13   11
 0.2750211001228645    5    5   13   13
 -0.0002248430107168115    5    5   14   11
 0.0002654182752507563    5    5   14   13
 0.2889123651169187    5    5   14   14
 -0.1576659016277608    6    1    1    1
 0.02050397578652601    6    1    2    1
 -0.004621777865076831    6    1    2    2
 -0.0009289271011422144    6    1    3    3
 -0.0009289271011422151    6    1    4    4
 -0.000928927101142215    6    1    5    5
 0.01687270185688589    6    1    6    1
 -0.003735319947833844    6    1    6    2
 -0.003252275714344566    6    1    6    6
 -0.002284576942341443    6    1    7    3
 0.0003587629504097511    6    1    7    4
 -0.006222560400975193    6    1    7    7
 -0.002312574898260571    6    1    8    5
 -0.006222560400975192    6    1    8    8
 -0.0003587629504097513    6    1    9    3
 -0.002284576942341445    6    1    9    4
 -0.006222560400975198    6    1    9    9
 -0.000519022707386468    6    1   10   10
 -0.000519022707386468    6    1   11   11
 -0.0005190227073863786    6    1   12   12
 -0.000519022707386468    6    1   13   13
 -0.0005190227073864671    6    1   14   14
 0.1824664921365019    6    2    1    1
 -0.00461498974474535    6    2    2    1
 0.07424455188917793    6    2    2    2
 0.03935605701586362    6    2    3    3
 0.03935605701586369    6    2    4    4
 0.03935605701586369    6    2    5    5
 -0.003735319947833862    6    2    6    1
 0.04460884770591852    6    2    6    2
 0.04626661627863765    6    2    6    6
 0.04301307325096311    6    2    7    3
 -0.006754640992695423    6    2    7    4
 0.07970327739216634    6    2    7    7
 0.0435402072277214    6    2    8    5
 0.07970327739216639    6    2    8    8
 0.006754640992695429    6    2    9    3
 0.04301307325096317    6    2    9    4
 0.07970327739216646    6    2    9    9
 0.06741590794029233    6    2   10   10
 0.06741590794029229    6    2   11   11
 0.06741590794029222    6    2   12   12
 0.06741590794029227    6    2   13   13
 0.06741590794029244    6    2   14   14
 0.001848224194362883    6    3    3    1
 -0.008079619975713501    6    3    3    2
 0.02005983493614466    6    3    6    3
 0.004518460723552878    6    3    7    1
 0.01274001275926666    6    3    7    2
 -0.004994932790600465    6    3    7    6
 0.0007095652024006707    6    3    9    1
 0.002000652497651478    6    3    9    2
 -0.0007843889132565712    6    3    9    6
 -0.005731896088209462    6    3   10    3
 0.0003501087123407165    6    3   10    4
 0.006802657639527991    6    3   10    7
 0.0006465550892800856    6    3   10    9
 0.0002612826983916687    6    3   11    3
 0.003205585686631746    6    3   11    4
 -0.003791974966853422    6    3   11    5
 0.0002846111378724341    6    3   11    7
 0.004512216313332954    6    3   11    8
 -0.003816501632804068    6    3   11    9
 8.224244692063427e-06    6    3   12    3
 0.0002021353593155457    6    3   12    4
 2.764671449887487e-05    6    3   12    7
 -0.0002391347813742917    6    3   12    9
 -0.0003084338843306262    6    3   13    3
 -0.003784067031489344    6    3   13    4
 -0.003216148257338121    6    3   13    5
 -0.0003359721838380759    6    3   13    7
 0.003827018047247404    6    3   13    8
 0.004505229126941192    6    3   13    9
 5.891049175602703e-06    6    3   14    3
 7.227521390738179e-05    6    3   14    4
 -0.0002022811192590518    6    3   14    5
 6.417027302042793e-06    6    3   14    7
 0.0002407020547810582    6    3   14    8
 -8.604932104579675e-05    6    3   14    9
 0.001848224194362891    6    4    4    1
 -0.008079619975713451    6    4    4    2
 0.02005983493614466    6    4    6    4
 -0.0007095652024006712    6    4    7    1
 -0.00200065249765148    6    4    7    2
 0.0007843889132565702    6    4    7    6
 0.004518460723552896    6    4    9    1
 0.01274001275926671    6    4    9    2
 -0.004994932790600422    6    4    9    6
 0.0003501087123407169    6    4   10    3
 0.002858825639274458    6    4   10    4
 0.000116180749041474    6    4   10    7
 -0.003425271576851228    6    4   10    9
 0.003205585686631725    6    4   11    3
 -0.0002612826983916691    6    4   11    4
 0.0002011939898967717    6    4   11    5
 -0.003816501632804086    6    4   11    7
 -0.0002394084378964336    6    4   11    8
 -0.0002846111378724373    6    4   11    9
 0.0002021353593155454    6    4   12    3
 0.004968079746588066    6    4   12    4
 0.0006795005229498211    6    4   12    7
 -0.005877450971830136    6    4   12    9
 -0.003784067031489319    6    4   13    3
 0.0003084338843306268    6    4   13    4
 7.547874299337842e-05    6    4   13    5
 0.004505229126941214    6    4   13    7
 -8.981504846989815e-05    6    4   13    8
 0.0003359721838380798    6    4   13    9
 7.227521390738133e-05    6    4   14    3
 -5.891049175602713e-06    6    4   14    4
 -0.004971662232233389    6    4   14    5
 -8.604932104579715e-05    6    4   14    7
 0.005915971393471579    6    4   14    8
 -6.417027302042866e-06    6    4   14    9
 0.001848224194362891    6    5    5    1
 -0.008079619975713445    6    5    5    2
 0.02005983493614466    6    5    6    5
 0.004573835380372588    6    5    8    1
 0.01289614421145474    6    5    8    2
 -0.005056146709684677    6    5    8    6
 0.002873070448934989    6    5   10    5
 -0.003418776617029433    6    5   10    8
 -0.003791974966853396    6    5   11    3
 0.0002011939898967702    6    5   11    4
 0.004494728466372445    6    5   11    7
 0.0004634959244971431    6    5   11    9
 -0.004976303991280126    6    5   12    5
 0.005921494800423417    6    5   12    8
 -0.003216148257338099    6    5   13    3
 7.547874299337722e-05    6    5   13    4
 0.003794618503836035    6    5   13    7
 0.0005049794918947771    6    5   13    9
 -0.0002022811192590514    6    5   14    3
 -0.004971662232233388    6    5   14    4
 -0.0006799905112337467    6    5   14    7
 0.005881689205677392    6    5   14    9
 0.3772589481300885    6    6    1    1
 -0.00393577757952685    6    6    2    1
 0.2770500736412927    6    6    2    2
 0.237013848704835    6    6    3    3
 0.2370138487048352    6    6    4    4
 0.2370138487048351    6    6    5    5
 -0.003252275714344806    6    6    6    1
 0.04626661627863751    6    6    6    2
 0.2388689306120554    6    6    6    6
 0.05089968804362847    6    6    7    3
 -0.007993130771403411    6    6    7    4
 0.2711737806644294    6    6    7    7
 0.05152347409159689    6    6    8    5
 0.2711737806644295    6    6    8    8
 0.007993130771403437    6    6    9    3
 0.05089968804362856    6    6    9    4
 0.2711737806644298    6    6    9    9
 0.2733359597432493    6    6   10   10
 0.2733359597432488    6    6   11   11
 0.2733359597432485    6    6   12   12
 0.2733359597432488    6    6   13   13
 0.2733359597432494    6    6   14   14
 0.007369432526044712    7    1    3    1
 0.01231861055955869    7    1    3    2
 -0.001157273063072981    7    1    4    1
 -0.001934476789723056    7    1    4    2
 0.004518460723552878    7    1    6    3
 -0.0007095652024006712    7    1    6    4
 0.02029898685610507    7    1    7    1
 0.01499668116538565    7    1    7    2
 0.01443928967915815    7    1    7    6
 0.01022505089320364    7    1   10    3
 0.0001746308773289936    7    1   10    4
 0.0112766497572188    7    1   10    7
 0.0019687214070084    7    1   10    9
 0.0004277980053866364    7    1   11    3
 -0.005736570249054018    7    1   11    4
 0.006756010629248419    7    1   11    5
 0.001469237478169363    7    1   11    7
 0.007562428725138795    7    1   11    8
 -0.006269274677900043    7    1   11    9
 4.155567981817171e-05    7    1   12    3
 0.001021354858246615    7    1   12    4
 -0.0001314087900541112    7    1   12    7
 0.001136641834295679    7    1   12    9
 -0.0005049986138481405    7    1   13    3
 0.006771794135404018    7    1   13    4
 0.005703677794478515    7    1   13    5
 -0.001734376693081336    7    1   13    7
 0.006384486224039448    7    1   13    8
 0.007400630630129786    7    1   13    9
 9.64541128237898e-06    7    1   14    3
 -0.0001293404333486256    7    1   14    4
 -0.00102209135792155    7    1   14    5
 3.312638107234968e-05    7    1   14    7
 -0.001144091309063248    7    1   14    8
 -0.0001413511328924931    7    1   14    9
 0.006157679015473191    7    2    3    1
 0.03141171182955067    7    2    3    2
 -0.000966983011306784    7    2    4    1
 -0.004932798805997148    7    2    4    2
 0.01274001275926667    7    2    6    3
 -0.00200065249765148    7    2    6    4
 0.01499668116538565    7    2    7    1
 0.03597693279653    7    2    7    2
 0.02960837704480541    7    2    7    6
 0.02826930847010425    7    2   10    3
 0.0004828038697489098    7    2   10    4
 0.02805901956114999    7    2   10    7
 0.00489865284982723    7    2   10    9
 0.001182737758812375    7    2   11    3
 -0.01585995763001246    7    2   11    4
 0.0186784154426529    7    2   11    5
 0.003655816579169557    7    2   11    7
 0.01881714339781058    7    2   11    8
 -0.01559946478862751    7    2   11    9
 0.0001148894361245294    7    2   12    3
 0.002823750790756884    7    2   12    4
 -0.0003269767076231998    7    2   12    7
 0.002828238541514279    7    2   12    9
 -0.001396175113547558    7    2   13    3
 0.01872205227232863    7    2   13    4
 0.01576901950613947    7    2   13    5
 -0.004315546780764275    7    2   13    7
 0.01588613885374392    7    2   13    8
 0.01841455078293324    7    2   13    9
 2.666677258729659e-05    7    2   14    3
 -0.0003575888908699279    7    2   14    4
 -0.002825786999350495    7    2   14    5
 8.242641161255795e-05    7    2   14    7
 -0.002846774628270869    7    2   14    8
 -0.0003517156503226688    7    2   14    9
 0.1725026396685237    7    3    1    1
 -0.002651861327872155    7    3    2    1
 0.0820231708376828    7    3    2    2
 0.04908109449616049    7    3    3    3
 -0.0002128594701864374    7    3    4    3
 0.04637014657363093    7    3    4    4
 0.04637014657363091    7    3    5    5
 -0.002284576942341421    7    3    6    1
 0.04301307325096309    7    3    6    2