 &FCI NORB=10,NELEC=0,MS2=0,
  ORBSYM=1,1,1,1,1,1,1,1,1,1,
  ISYM=1
 &END
 6.5583609083574868E-01    1    1    1    1
-9.9855020085914958E-17    2    1    1    1
 7.6388604123090398E-02    2    1    2    1
 4.3159179514117468E-01    2    2    1    1
 7.3194488664496404E-16    2    2    2    1
 3.8487866555894973E-01    2    2    2    2
 1.7344231955890088E-01    3    1    1    1
-2.6107588313450947E-16    3    1    2    1
 4.8506359627123886E-02    3    1    2    2
 1.1535241066605419E-01    3    1    3    1
-1.3877787807814457E-17    3    2    1    1
-2.2529047440875812E-02    3    2    2    1
-1.6740081543176188E-16    3    2    2    2
 1.2078012201488519E-16    3    2    3    1
 3.6878103330020666E-02    3    2    3    2
 5.4061731527324552E-01    3    3    1    1
-2.5787748672567723E-16    3    3    2    1
 3.8163150346742120E-01    3    3    2    2
 1.2707765628976855E-01    3    3    3    1
-6.0010590247072670E-17    3    3    3    2
 4.7299435857573563E-01    3    3    3    3
-1.9428902930940239E-16    4    1    1    1
-7.5205484559808813E-02    4    1    2    1
 6.9388939039072284E-18    4    1    2    2
 2.0816681711721685E-16    4    1    3    1
-1.5741229394918108E-02    4    1    3    2
 1.1102230246251565E-16    4    1    3    3
 1.2332620107466692E-01    4    1    4    1
-1.4278330929418412E-01    4    2    1    1
 2.2724877535296173E-16    4    2    2    1
-5.8598059114661705E-02    4    2    2    2
-7.1078179714099465E-02    4    2    3    1
 2.4980018054066022E-16    4    2    3    2
-9.7691724588607615E-02    4    2    3    3
 3.9898639947466563E-16    4    2    4    1
 7.0344265944712728E-02    4    2    4    2
-1.3877787807814457E-17    4    3    1    1
-7.4165791560236338E-02    4    3    2    1
-1.8041124150158794E-16    4    3    2    2
 7.9797279894933126E-17    4    3    3    1
 3.2020900327088798E-03    4    3    3    2
 2.6367796834847468E-16    4    3    3    3
 1.0191690635740683E-01    4    3    4    1
-1.4398204850607499E-16    4    3    4    2
 1.0211611570212105E-01    4    3    4    3
 6.2921400850320852E-01    4    4    1    1
-6.3577615394549980E-16    4    4    2    1
 4.4046114158051036E-01    4    4    2    2
 1.7635691914487883E-01    4    4    3    1
-3.8597597340483958E-17    4    4    3    2
 5.2658827223285787E-01    4    4    3    3
-4.9266146717741321E-16    4    4    4    1
-1.5996170236722723E-01    4    4    4    2
 1.2359904766334751E-16    4    4    4    3
 6.7897047846312197E-01    4    4    4    4
 1.2537903045920396E-01    5    1    5    1
-3.4694469519536142E-18    5    2    5    1
 2.0839905484035900E-02    5    2    5    2
 4.7315561306255902E-02    5    3    5    1
 5.6378512969246231E-18    5    3    5    2
 2.7772633931366350E-02    5    3    5    3
 3.1225022567582528E-17    5    4    5    1
-2.7843376790442423E-02    5    4    5    2
 1.0408340855860843E-17    5    4    5    3
 4.4163932771024331E-02    5    4    5    4
 7.0343143476348691E-01    5    5    1    1
-3.4694469519536142E-17    5    5    2    1
 4.4538945748214420E-01    5    5    2    2
 1.9008356242464358E-01    5    5    3    1
 2.4502969098172400E-17    5    5    3    2
 5.6143701242447741E-01    5    5    3    3
-6.9388939039072284E-18    5    5    4    1
-1.5811256914257005E-01    5    5    4    2
 9.0205620750793969E-17    5    5    4    3
 6.5744400838786266E-01    5    5    4    4
 8.1472078271962478E-01    5    5    5    5
-3.9419836237073251E-18    6    1    2    1
 1.2449166929972782E-18    6    1    4    1
 2.8615243770921007E-18    6    1    4    3
 1.2537903045920396E-01    6    1    6    1
-1.4348190436211522E-17    6    2    1    1
-1.1393362186759929E-17    6    2    2    2
-2.9456759623080417E-18    6    2    3    1
-1.1775412217913420E-17    6    2    3    3
 2.9309782442616311E-18    6    2    4    2
-1.3797808961096899E-17    6    2    4    4
-1.4927441748666158E-17    6    2    5    5
-3.4694469519536142E-18    6    2    6    1
 2.0839905484035900E-02    6    2    6    2
-1.2822959098640255E-18    6    3    2    1
 1.0975254028099897E-18    6    3    4    1
 1.2713882833653870E-18    6    3    4    3
 4.7315561306255902E-02    6    3    6    1
 5.6378512969246231E-18    6    3    6    2
 2.7772633931366350E-02    6    3    6    3
 1.0173637203023473E-18    6    4    2    2
 3.1225022567582528E-17    6    4    6    1
-2.7843376790442423E-02    6    4    6    2
 1.0408340855860843E-17    6    4    6    3
 4.4163932771024331E-02    6    4    6    4
-1.1176814557983081E-18    6    5    5    2
 3.9565350600283725E-02    6    5    6    5
 7.0343143476348691E-01    6    6    1    1
-3.4694469519536142E-17    6    6    2    1
 4.4538945748214420E-01    6    6    2    2
 1.9008356242464358E-01    6    6    3    1
 2.4502969098172400E-17    6    6    3    2
 5.6143701242447741E-01    6    6    3    3
-6.9388939039072284E-18    6    6    4    1
-1.5811256914257005E-01    6    6    4    2
 9.0205620750793969E-17    6    6    4    3
 6.5744400838786266E-01    6    6    4    4
 7.3559008151905736E-01    6    6    5    5
-1.7162804660262773E-17    6    6    6    2
 8.1472078271962478E-01    6    6    6    6
-4.1983409570995056E-02    7    1    1    1
-1.7347234759768071E-16    7    1    2    1
 2.3454530477598920E-02    7    1    2    2
-3.6280912295101893E-02    7    1    3    1
-3.9031278209478160E-18    7    1    3    2
-3.5672589100795057E-02    7    1    3    3
-1.3877787807814457E-17    7    1    4    1
-1.0384229530931176E-02    7    1    4    2
-2.0816681711721685E-17    7    1    4    3
 2.2359558860493178E-02    7    1    4    4
-5.3980977996258811E-02    7    1    5    5
 1.3113682488708832E-18    7    1    6    4
-5.3980977996258811E-02    7    1    6    6
 8.7001431688546960E-02    7    1    7    1
-2.7755575615628914E-17    7    2    1    1
 5.5013110594751169E-02    7    2    2    1
-8.3266726846886741E-17    7    2    2    2
 8.3266726846886741E-17    7    2    3    1
-8.5517267236990442E-03    7    2    3    2
 4.1633363423443370E-17    7    2    3    3
-6.1984139699940995E-02    7    2    4    1
 1.7347234759768071E-17    7    2    4    2
-4.9432596075446290E-02    7    2    4    3
-1.3877787807814457E-16    7    2    4    4
 2.7755575615628914E-17    7    2    5    5
 2.7755575615628914E-17    7    2    6    6
 4.5102810375396984E-17    7    2    7    1
 5.5659796673682760E-02    7    2    7    2
-6.6820000994233353E-02    7    3    1    1
-1.8041124150158794E-16    7    3    2    1
-1.2307166418025289E-02    7    3    2    2
-4.3427556180431287E-02    7    3    3    1
 5.2041704279304213E-18    7    3    3    2
-4.9802162770778063E-02    7    3    3    3
-1.3183898417423734E-16    7    3    4    1
 1.0134171119942231E-02    7    3    4    2
 1.1622647289044608E-16    7    3    4    3
-2.8149647907043829E-02    7    3    4    4
-7.6362864594289301E-02    7    3    5    5
-7.6362864594289301E-02    7    3    6    6
 5.2934282272435143E-02    7    3    7    1
 2.7755575615628914E-17    7    3    7    2
 4.6004934476021733E-02    7    3    7    3
 2.7755575615628914E-17    7    4    1    1
-8.2905752778125605E-02    7    4    2    1
-6.9388939039072284E-18    7    4    3    1
 8.0258576163820105E-03    7    4    3    2
 1.1102230246251565E-16    7    4    3    3
 1.0237774055403444E-01    7    4    4    1
-1.0408340855860843E-16    7    4    4    2
 8.5874469326670755E-02    7    4    4    3
-2.7755575615628914E-17    7    4    4    4
 2.7755575615628914E-17    7    4    5    5
 2.1584242078908534E-18    7    4    6    1
 1.0280731256206631E-18    7    4    6    3
 2.7755575615628914E-17    7    4    6    6
-2.7755575615628914E-17    7    4    7    1
-8.2522684184851494E-02    7    4    7    2
 5.1608023410310011E-17    7    4    7    3
 1.3472659550799171E-01    7    4    7    4
-2.6389335244123013E-02    7    5    5    1
 1.7347234759768071E-18    7    5    5    2
-1.6955635331894071E-02    7    5    5    3
-3.4694469519536142E-18    7    5    5    4
 4.4831690652226280E-02    7    5    7    5
 1.0734820828880607E-18    7    6    4    1
-2.6389335244123013E-02    7    6    6    1
 1.7347234759768071E-18    7    6    6    2
-1.6955635331894071E-02    7    6    6    3
-3.4694469519536142E-18    7    6    6    4
-1.6140159595373265E-18    7    6    7    2
 1.3331049197385377E-18    7    6    7    4
 4.4831690652226280E-02    7    6    7    6
 6.9261052354558383E-01    7    7    1    1
-3.0531133177191805E-16    7    7    2    1
 4.6767227470768058E-01    7    7    2    2
 1.9649372248572833E-01    7    7    3    1
 6.9388939039072284E-18    7    7    3    2
 5.6250141093964867E-01    7    7    3    3
-3.0531133177191805E-16    7    7    4    1
-1.7465910933546677E-01    7    7    4    2
-6.9388939039072284E-18    7    7    4    3
 7.0063231796701553E-01    7    7    4    4
 7.3415531596662886E-01    7    7    5    5
-1.4911619389335590E-17    7    7    6    2
 7.3415531596662886E-01    7    7    6    6
-9.3487144819250911E-03    7    7    7    1
-2.0816681711721685E-17    7    7    7    2
-6.6666467586520589E-02    7    7    7    3
 2.7755575615628914E-17    7    7    7    4
 8.0162094973559506E-01    7    7    7    7
 2.2991472934284659E-17    8    1    1    1
 9.0568080018033454E-18    8    1    2    2
 1.0144975915608195E-17    8    1    3    1
 1.8582085564829923E-17    8    1    3    3
-5.5046074212550225E-18    8    1    4    2
 2.0388489273185332E-17    8    1    4    4
 2.5707293040412648E-17    8    1    5    5
 3.5801393327354228E-02    8    1    6    2
-5.1386387750900847E-02    8    1    6    4
 2.1891745635699930E-17    8    1    6    6
-6.1694701401424389E-18    8    1    7    1
-6.1659810497343037E-18    8    1    7    3
 3.4694469519536142E-18    8    1    7    6
 2.4801955011978027E-17    8    1    7    7
 6.4388951105336378E-02    8    1    8    1
-3.4248518369873510E-18    8    2    2    1
 1.2123057320583972E-18    8    2    3    2
 1.0570594639664490E-18    8    2    4    1
 1.9691332786959958E-18    8    2    4    3
 6.2399221658810677E-02    8    2    6    1
-1.9081958235744878E-17    8    2    6    2
 1.8387877798078080E-02    8    2    6    3
-1.7347234759768071E-17    8    2    6    4
-1.5773800611768464E-18    8    2    7    2
 2.4725695741420814E-18    8    2    7    4
 5.5926910057452241E-03    8    2    7    6
 6.5919492087118670E-17    8    2    8    1
 4.1315989258169469E-02    8    2    8    2
 2.4609398595296504E-17    8    3    1    1
 1.2947253317905805E-17    8    3    2    2
 9.6503530335247848E-18    8    3    3    1
 2.0363907817167331E-17    8    3    3    3
-5.4023292738398712E-18    8    3    4    2
 2.2434146470933658E-17    8    3    4    4
 2.6399204852498495E-17    8    3    5    5
 1.0046241103905023E-02    8    3    6    2
-1.0408340855860843E-17    8    3    6    3
-2.1554222528737111E-02    8    3    6    4
 2.5072390697770731E-17    8    3    6    6
-5.2008372831936006E-18    8    3    7    1
-5.4776945614494543E-18    8    3    7    3
-1.7347234759768071E-18    8    3    7    6
 2.6379216636775034E-17    8    3    7    7
 2.1874739585579762E-02    8    3    8    1
 3.2959746043559335E-17    8    3    8    2
 1.4791953362366356E-02    8    3    8    3
 3.8260178361276839E-18    8    4    4    1
 2.5468389650481568E-18    8    4    4    3
-8.3587679221697547E-02    8    4    6    1
 6.9388939039072284E-18    8    4    6    2
-3.3648002846564627E-02    8    4    6    3
 2.0816681711721685E-17    8    4    6    4
 1.0370469474813637E-18    8    4    7    4
-5.4753768188254932E-03    8    4    7    6
 4.8572257327350599E-17    8    4    8    1
-5.0953651091235258E-02    8    4    8    2
 3.4694469519536142E-18    8    4    8    3
 7.3904099850106764E-02    8    4    8    4
 6.4703506593489485E-18    8    5    5    1
 3.2604427332274920E-18    8    5    5    3
-3.5695623924602239E-18    8    5    7    5
 2.5412989414219735E-02    8    5    8    5
 1.0379742056679613E-01    8    6    2    1
-5.5511151231257827E-17    8    6    2    2
 1.1102230246251565E-16    8    6    3    1
-5.3150253001262660E-03    8    6    3    2
-1.3129580090808701E-01    8    6    4    1
-5.5511151231257827E-17    8    6    4    2
-1.0952114827494820E-01    8    6    4    3
-1.6653345369377348E-16    8    6    4    4
-2.1284621242223261E-18    8    6    6    1
 4.8572257327350599E-17    8    6    7    1
 7.3881336183404561E-02    8    6    7    2
-4.8572257327350599E-17    8    6    7    3
-1.1419602003385537E-01    8    6    7    4
-3.4526661967413256E-18    8    6    7    6
-4.3230767687633200E-18    8    6    8    2
-2.8252937721395564E-18    8    6    8    4
 2.0606676694600937E-01    8    6    8    6
-2.8175547357300538E-17    8    7    1    1
-1.6534985339840036E-17    8    7    2    2
-1.0552905724483530E-17    8    7    3    1
-2.3047633569429422E-17    8    7    3    3
 6.2398740667551221E-18    8    7    4    2
-2.4940418564547827E-17    8    7    4    4
-3.0752605666040852E-17    8    7    5    5
-1.3877787807814457E-17    8    7    6    1
 1.9736990052552267E-02    8    7    6    2
 1.2143064331837650E-17    8    7    6    3
-2.5962533708784461E-02    8    7    6    4
-3.0423452932605396E-17    8    7    6    6
 5.6834414209878619E-18    8    7    7    1
 6.1729481641695219E-18    8    7    7    3
 1.3877787807814457E-17    8    7    7    6
-3.0993376116363876E-17    8    7    7    7
 2.9967093684142819E-02    8    7    8    1
 6.0715321659188248E-18    8    7    8    2
 6.7121302498989437E-03    8    7    8    3
-4.3368086899420177E-18    8    7    8    4
 3.4185847754742683E-02    8    7    8    7
 6.6559840365785450E-01    8    8    1    1
 1.3877787807814457E-16    8    8    2    1
 4.5414608172444498E-01    8    8    2    2
 1.6331110262334192E-01    8    8    3    1
 8.3266726846886741E-17    8    8    3    2
 5.3403657757451128E-01    8    8    3    3
 1.8041124150158794E-16    8    8    4    1
-1.5906449140446810E-01    8    8    4    2
 1.6653345369377348E-16    8    8    4    3
 6.5752953676301928E-01    8    8    4    4
 6.9290128332774870E-01    8    8    5    5
-1.6404975385604298E-17    8    8    6    2
 7.6042070981726040E-01    8    8    6    6
-1.4448522265345753E-03    8    8    7    1
 2.0816681711721685E-17    8    8    7    2
-4.4928421145405129E-02    8    8    7    3
-5.5511151231257827E-17    8    8    7    4
 7.0818178328340342E-01    8    8    7    7
 1.9283326846574246E-17    8    8    8    1
 2.3120642859752591E-17    8    8    8    3
-2.7315486157467829E-17    8    8    8    7
 7.5452703276865918E-01    8    8    8    8
 3.5801393327354228E-02    9    1    5    2
-5.1386387750900847E-02    9    1    5    4
-1.9077737023563574E-18    9    1    6    5
 3.4694469519536142E-18    9    1    7    5
 6.4388951105336378E-02    9    1    9    1
 6.2399221658810677E-02    9    2    5    1
-1.9081958235744878E-17    9    2    5    2
 1.8387877798078080E-02    9    2    5    3
-1.7347234759768071E-17    9    2    5    4
 5.5926910057452241E-03    9    2    7    5
 1.5719728766759178E-18    9    2    8    5
 6.5919492087118670E-17    9    2    9    1
 4.1315989258169469E-02    9    2    9    2
 1.0046241103905023E-02    9    3    5    2
-1.0408340855860843E-17    9    3    5    3
-2.1554222528737111E-02    9    3    5    4
-1.7347234759768071E-18    9    3    7    5
 2.1874739585579762E-02    9    3    9    1
 3.2959746043559335E-17    9    3    9    2
 1.4791953362366356E-02    9    3    9    3
-8.3587679221697547E-02    9    4    5    1
 6.9388939039072284E-18    9    4    5    2
-3.3648002846564627E-02    9    4    5    3
 2.0816681711721685E-17    9    4    5    4
-5.4753768188254932E-03    9    4    7    5
-3.2723907752454802E-18    9    4    8    5
 4.8572257327350599E-17    9    4    9    1
-5.0953651091235258E-02    9    4    9    2
 3.4694469519536142E-18    9    4    9    3
 7.3904099850106764E-02    9    4    9    4
 1.0379742056679613E-01    9    5    2    1
-5.5511151231257827E-17    9    5    2    2
 1.1102230246251565E-16    9    5    3    1
-5.3150253001262660E-03    9    5    3    2
-1.3129580090808701E-01    9    5    4    1
-5.5511151231257827E-17    9    5    4    2
-1.0952114827494820E-01    9    5    4    3
-1.6653345369377348E-16    9    5    4    4
-5.5703828999401693E-18    9    5    6    1
-2.2497878681480028E-18    9    5    6    3
 4.8572257327350599E-17    9    5    7    1
 7.3881336183404561E-02    9    5    7    2
-4.8572257327350599E-17    9    5    7    3
-1.1419602003385537E-01    9    5    7    4
-3.7002346591519210E-18    9    5    8    2
-1.7244741691801967E-18    9    5    8    4
 1.5524078811757000E-01    9    5    8    6
 2.0606676694600937E-01    9    5    9    5
-3.0284298836311058E-18    9    6    5    1
-1.0189897811382267E-18    9    6    5    3
 2.5412989414219735E-02    9    6    8    5
-2.1948149862873191E-18    9    6    9    2
 2.1715711722861243E-18    9    6    9    4
 2.5412989414219735E-02    9    6    9    6
-1.3877787807814457E-17    9    7    5    1
 1.9736990052552267E-02    9    7    5    2
 1.2143064331837650E-17    9    7    5    3
-2.5962533708784461E-02    9    7    5    4
 1.3877787807814457E-17    9    7    7    5
 2.9967093684142819E-02    9    7    9    1
 6.0715321659188248E-18    9    7    9    2
 6.7121302498989437E-03    9    7    9    3
-4.3368086899420177E-18    9    7    9    4
 3.4185847754742683E-02    9    7    9    7
 3.3759713244755955E-02    9    8    6    5
 3.6690832468965859E-02    9    8    9    8
 6.6559840365785450E-01    9    9    1    1
 1.3877787807814457E-16    9    9    2    1
 4.5414608172444498E-01    9    9    2    2
 1.6331110262334192E-01    9    9    3    1
 8.3266726846886741E-17    9    9    3    2
 5.3403657757451128E-01    9    9    3    3
 1.8041124150158794E-16    9    9    4    1
-1.5906449140446810E-01    9    9    4    2
 1.6653345369377348E-16    9    9    4    3
 6.5752953676301928E-01    9    9    4    4
 7.6042070981726040E-01    9    9    5    5
-1.5526772739678393E-17    9    9    6    2
 1.1081092700692739E-18    9    9    6    4
 6.9290128332774870E-01    9    9    6    6
-1.4448522265345753E-03    9    9    7    1
 2.0816681711721685E-17    9    9    7    2
-4.4928421145405129E-02    9    9    7    3
-5.5511151231257827E-17    9    9    7    4
 7.0818178328340342E-01    9    9    7    7
 1.9805704115647783E-17    9    9    8    1
 2.2435186014765233E-17    9    9    8    3
-2.7006452362534255E-17    9    9    8    7
 6.8114536783072765E-01    9    9    8    8
 7.5452703276865918E-01    9    9    9    9
 1.6653345369377348E-16   10    1    1    1
-1.1184761116432934E-02   10    1    2    1
 3.0531133177191805E-16   10    1    2    2
 1.1102230246251565E-16   10    1    3    1
-1.5013425021631787E-02   10    1    3    2
 2.2204460492503131E-16   10    1    3    3
 3.7718783559957267E-02   10    1    4    1
-4.1633363423443370E-17   10    1    4    2
 3.9822473155123245E-02   10    1    4    3
-3.3306690738754696E-16   10    1    4    4
-1.1102230246251565E-16   10    1    5    5
 2.0043918198952910E-17   10    1    6    1
 8.1582689032565904E-18   10    1    6    3
-1.1102230246251565E-16   10    1    6    6
 2.7755575615628914E-17   10    1    7    1
 1.2384866031166633E-02   10    1    7    2
 1.3877787807814457E-16   10    1    7    3
-1.3877558568578544E-02   10    1    7    4
-6.7563979683161435E-18   10    1    7    6
 2.7755575615628914E-16   10    1    7    7
 8.1394373146797987E-18   10    1    8    2
-8.8631646237152627E-18   10    1    8    4
-3.9298517980131883E-02   10    1    8    6
-5.5511151231257827E-17   10    1    8    8
-3.9298517980131883E-02   10    1    9    5
-5.5511151231257827E-17   10    1    9    9
 5.9948018444759263E-02   10    1   10    1
-1.2875600246698371E-02   10    2    1    1
-6.7307270867900115E-16   10    2    2    1
 2.0409714176888694E-02   10    2    2    2
-1.7292165226573827E-02   10    2    3    1
-1.6653345369377348E-16   10    2    3    2
-1.5704238741614390E-02   10    2    3    3
 1.6653345369377348E-16   10    2    4    1
-6.6261087834519339E-03   10    2    4    2
 9.9070362346047602E-03   10    2    4    4
-1.7661040821374707E-02   10    2    5    5
 2.0233989351903412E-18   10    2    6    2
-2.5485597678605910E-18   10    2    6    4
-1.7661040821374707E-02   10    2    6    6
 3.8919805454919139E-02   10    2    7    1
-2.1510571102112408E-16   10    2    7    2
 1.5551033670585778E-02   10    2    7    3
 1.3877787807814457E-17   10    2    7    4
 2.4108859872511323E-02   10    2    7    7
 1.6944245363455355E-18   10    2    8    1
-6.9388939039072284E-17   10    2    8    6
 2.6651240889749178E-18   10    2    8    7
 2.0011331919086994E-03   10    2    8    8
-6.9388939039072284E-17   10    2    9    5
 2.0011331919086994E-03   10    2    9    9
 2.2551405187698492E-16   10    2   10    1
 3.1377790021910726E-02   10    2   10    2
-2.7075191583032426E-02   10    3    2    1
-2.2204460492503131E-16   10    3    2    2
-3.8857805861880479E-16   10    3    3    1
-1.5728720189083986E-02   10    3    3    2
 2.7755575615628914E-16   10    3    3    3
 5.9830332945874927E-02   10    3    4    1
-3.3306690738754696E-16   10    3    4    2
 5.5115667932651165E-02   10    3    4    3
-1.6653345369377348E-16   10    3    4    4
-1.1102230246251565E-16   10    3    5    5
 9.0497911124967211E-18   10    3    6    1
 5.4657489212717688E-18   10    3    6    3
-1.1102230246251565E-16   10    3    6    6
-1.3877787807814457E-16   10    3    7    1
-1.2566346547726599E-02   10    3    7    2
 2.3592239273284576E-16   10    3    7    3
 1.9750793254252587E-02   10    3    7    4
-3.7292459385616508E-18   10    3    7    6
 2.2204460492503131E-16   10    3    7    7
 2.8214149184684289E-18   10    3    8    2
-2.2861898758395598E-18   10    3    8    4
-5.4342810036345106E-02   10    3    8    6
-1.6653345369377348E-16   10    3    8    8
-5.4342810036345106E-02   10    3    9    5
-1.6653345369377348E-16   10    3    9    9
 4.6833964237969580E-02   10    3   10    1
-2.4286128663675299E-16   10    3   10    2
 5.2918266620290505E-02   10    3   10    3
 9.6746438463536033E-02   10    4    1    1
-5.8286708792820718E-16   10    4    2    1
 3.4189012692037446E-04   10    4    2    2
 7.5101401229915501E-02   10    4    3    1
-2.8449465006019636E-16   10    4    3    2
 8.2679704043522262E-02   10    4    3    3
-5.4817261840867104E-16   10    4    4    1
-2.3539676743397880E-02   10    4    4    2
-9.7144514654701197E-17   10    4    4    3
 6.9341086141289365E-02   10    4    4    4
 1.0628661439758219E-01   10    4    5    5
-3.9160367352284809E-18   10    4    6    2
 3.9716806429948007E-18   10    4    6    4
 1.0628661439758219E-01   10    4    6    6
-6.5358741703867171E-02   10    4    7    1
-1.1796119636642288E-16   10    4    7    2
-4.1102402226564728E-02   10    4    7    3
-1.3877787807814457E-16   10    4    7    4
 5.3708013674617749E-02   10    4    7    7
 2.2469898634336164E-18   10    4    8    1
 4.4291719301081249E-18   10    4    8    3
 1.1102230246251565E-16   10    4    8    6
-8.2372566852883171E-18   10    4    8    7
 7.0838210925868172E-02   10    4    8    8
 1.1102230246251565E-16   10    4    9    5
 7.0838210925868172E-02   10    4    9    9
-1.7347234759768071E-16   10    4   10    1
-4.8436673843832573E-02   10    4   10    2
-2.7755575615628914E-16   10    4   10    3
 1.0541600175981609E-01   10    4   10    4
-1.3877787807814457E-17   10    5    5    1
-8.4530443473923716E-03   10    5    5    2
-6.9388939039072284E-18   10    5    5    3
 1.7234818581403410E-02   10    5    5    4
 6.3782910630138971E-18   10    5    6    5
-2.7755575615628914E-17   10    5    7    5
-2.1794469833264704E-02   10    5    9    1
-1.3877787807814457E-17   10    5    9    2
-1.3602516748654115E-02   10    5    9    3
 6.9388939039072284E-18   10    5    9    4
 9.6850911236271604E-03   10    5    9    7
 3.6152527797503081E-18   10    5    9    8
 2.8379321027431511E-02   10    5   10    5
 1.0065789075304879E-16   10    6    1    1
 6.0795524428999872E-17   10    6    2    2
 2.8613311822762253E-17   10    6    3    1
 8.0330859049911983E-17   10    6    3    3
-2.1751318923590388E-17   10    6    4    2
 9.0661617249904390E-17   10    6    4    4
 1.0539712444950791E-16   10    6    5    5
-1.3877787807814457E-17   10    6    6    1
-8.4530443473923716E-03   10    6    6    2
-6.9388939039072284E-18   10    6    6    3
 1.7234818581403410E-02   10    6    6    4
 1.1815370657553571E-16   10    6    6    6
-1.2218777097999450E-17   10    6    7    1
-1.3014248610856879E-17   10    6    7    3
-2.7755575615628914E-17   10    6    7    6
 1.0248643913494274E-16   10    6    7    7
-2.1794469833264704E-02   10    6    8    1
-1.3877787807814457E-17   10    6    8    2
-1.3602516748654115E-02   10    6    8    3
 6.9388939039072284E-18   10    6    8    4
 9.6850911236271604E-03   10    6    8    7
 1.0480585684515680E-16   10    6    8    8
 9.7575351285656191E-17   10    6    9    9
-6.5634737786954062E-18   10    6   10    2
 2.1264749111221040E-17   10    6   10    4
 2.8379321027431511E-02   10    6   10    6
 9.1446390325879409E-02   10    7    2    1
-1.1102230246251565E-16   10    7    2    2
-3.3306690738754696E-16   10    7    3    1
-1.3422130080853816E-02   10    7    3    2
 1.1102230246251565E-16   10    7    3    3
-1.0546679748440282E-01   10    7    4    1
 1.1102230246251565E-16   10    7    4    2
-8.7533845678171060E-02   10    7    4    3
 4.4408920985006262E-16   10    7    4    4
 1.1102230246251565E-16   10    7    5    5
-1.1462835318111781E-17   10    7    6    1
-5.4289790879988626E-18   10    7    6    3
 1.1102230246251565E-16   10    7    6    6
-2.4980018054066022E-16   10    7    7    1
 8.5204593716822916E-02   10    7    7    2
-6.9388939039072284E-17   10    7    7    3
-1.2415812310072805E-01   10    7    7    4
 5.6189693700851609E-18   10    7    7    6
-3.3306690738754696E-16   10    7    7    7
-4.7605653209618251E-18   10    7    8    2
 1.2377716209524697E-18   10    7    8    4
 1.2553298330889920E-01   10    7    8    6
-1.1102230246251565E-16   10    7    8    8
 1.2553298330889920E-01   10    7    9    5
-1.1102230246251565E-16   10    7    9    9
 4.7468844671420974E-03   10    7   10    1
-2.2551405187698492E-17   10    7   10    2
-3.4038293082789300E-02   10    7   10    3
 8.3266726846886741E-17   10    7   10    4
 1.5713153292917767E-01   10    7   10    7
 7.9698381889272261E-18   10    8    2    1
-8.3408089030496139E-18   10    8    4    1
-7.0500749208017769E-18   10    8    4    3
-4.2710269925411673E-02   10    8    6    1
 5.8980598183211441E-17   10    8    6    2
-2.1902846474619882E-02   10    8    6    3
 4.2067044292437572E-17   10    8    6    4
 4.2213724889644893E-18   10    8    7    2
-7.6645735524678628E-18   10    8    7    4
 2.7994318501692126E-02   10    8    7    6
 4.8572257327350599E-17   10    8    8    1
-1.1040909876488918E-02   10    8    8    2
-1.3010426069826053E-17   10    8    8    3
 1.9857315566816747E-02   10    8    8    4
 1.6047079437230194E-17   10    8    8    6
 3.1225022567582528E-17   10    8    8    7
 1.1822766482707044E-17   10    8    9    5
-1.0492018769496584E-17   10    8   10    1
-6.6424381170095018E-18   10    8   10    3
-1.3183898417423734E-16   10    8   10    6
 1.2336349854292408E-17   10    8   10    7
 3.6203486769169346E-02   10    8   10    8
-4.2710269925411673E-02   10    9    5    1
 5.8980598183211441E-17   10    9    5    2
-2.1902846474619882E-02   10    9    5    3
 4.2067044292437572E-17   10    9    5    4
 2.7994318501692126E-02   10    9    7    5
 4.8572257327350599E-17   10    9    9    1
-1.1040909876488918E-02   10    9    9    2
-1.3010426069826053E-17   10    9    9    3
 1.9857315566816747E-02   10    9    9    4
 4.1337638654230199E-18   10    9    9    6
 3.1225022567582528E-17   10    9    9    7
-1.3183898417423734E-16   10    9   10    5
 3.6203486769169346E-02   10    9   10    9
 7.0106345715991525E-01   10   10    1    1
-1.1241008124329710E-15   10   10    2    1
 4.7254469733276844E-01   10   10    2    2
 2.0657232130144298E-01   10   10    3    1
 3.8163916471489756E-16   10   10    3    2
 5.7612883665892056E-01   10   10    3    3
-1.0269562977782698E-15   10   10    4    1
-1.8123656404941887E-01   10   10    4    2
-5.5511151231257827E-16   10   10    4    3
 7.2319850786240780E-01   10   10    4    4
 7.3553793437799964E-01   10   10    5    5
-1.9568777010313251E-17   10   10    6    2
 7.5471212025562347E-18   10   10    6    4
 7.3553793437799964E-01   10   10    6    6
-1.7135480131988609E-03   10   10    7    1
-6.2040820673876736E-02   10   10    7    3
-4.4408920985006262E-16   10   10    7    4
 7.9439857613177500E-01   10   10    7    7
 1.5092071666204951E-17   10   10    8    1
 2.1749882470352301E-17   10   10    8    3
 1.3877787807814457E-16   10   10    8    6
-2.9768195767833373E-17   10   10    8    7
 7.1666567742087905E-01   10   10    8    8
 1.3877787807814457E-16   10   10    9    5
 7.1666567742087905E-01   10   10    9    9
 2.4286128663675299E-16   10   10   10    1
 1.8567377537612846E-02   10   10   10    2
 1.3877787807814457E-16   10   10   10    3
 7.8110633230545193E-02   10   10   10    4
 1.1089906463877885E-16   10   10   10    6
 5.5511151231257827E-16   10   10   10    7
 8.3010695597373574E-01   10   10   10   10
-1.2501413819973202E+00    1    1    0    0
 5.5171014693787613E-18    2    1    0    0
-5.4777373723564804E-01    2    2    0    0
-1.7344231912723537E-01    3    1    0    0
-8.2915353099553897E-17    3    2    0    0
-1.9386832965228623E-01    3    3    0    0
 2.4966848397963141E-17    4    1    0    0
 2.1036113363319725E-01    4    2    0    0
 9.3931308616895244E-18    4    3    0    0
 1.7369841476197112E-01    4    4    0    0
 6.7777395192652867E-01    5    5    0    0
 1.8561768911312843E-17    6    2    0    0
-1.6395662038850953E-17    6    4    0    0
 6.7777395192652867E-01    6    6    0    0
 4.1983409821675872E-02    7    1    0    0