 &FCI NORB=  18,NELEC= 6,MS2=0,
  ORBSYM=1,1,1,1,1,1,1,1,1,1,1,1,1,1,1,1,1,1,
  ISYM=1,
 &END
 0.9210232724208102    1    1    1    1
 -1.002318034671316e-11    1    1    2    1
 0.9213922536193169    1    1    2    2
 -0.06924382007084295    1    1    3    1
 5.006264158750304e-13    1    1    3    2
 0.2768135485860245    1    1    3    3
 8.826335895670714e-13    1    1    4    1
 -0.04365720870909779    1    1    4    2
 -7.859195827872498e-13    1    1    4    3
 0.1879499867212247    1    1    4    4
 0.1850203287141204    1    1    5    5
 0.1850203287141203    1    1    6    6
 -0.00655147317734372    1    1    7    1
 8.051739174806059e-14    1    1    7    2
 0.04053394967384048    1    1    7    3
 5.365727836671186e-13    1    1    7    4
 0.178355018070017    1    1    7    7
 -4.467983651322742e-13    1    1    8    5
 1.594239080568191e-13    1    1    8    6
 0.1554255579672504    1    1    8    8
 -1.592116187345718e-13    1    1    9    5
 -4.465763859110807e-13    1    1    9    6
 0.1554255579672505    1    1    9    9
 1.201522358631181e-12    1    1   10    1
 -0.05943273719308851    1    1   10    2
 -7.711406232209961e-13    1    1   10    3
 0.06090452933866727    1    1   10    4
 -1.305945908403298e-13    1    1   10    7
 0.1925165214151166    1    1   10   10
 0.006069351748600737    1    1   11    1
 -1.142889631933373e-13    1    1   11    2
 -0.04922303967006533    1    1   11    3
 -1.727045747281413e-13    1    1   11    4
 -0.05844359164530513    1    1   11    7
 -3.245512401483297e-13    1    1   11   10
 0.2382563661370403    1    1   11   11
 0.01967832008758954    1    1   12    5
 0.05806011022007052    1    1   12    6
 4.238282348829203e-15    1    1   12    8
 -2.657444209796186e-13    1    1   12    9
 0.2481499858010277    1    1   12   12
 0.05806011022007063    1    1   13    5
 -0.01967832008758963    1    1   13    6
 -2.644737109407491e-13    1    1   13    8
 -4.09873125098863e-15    1    1   13    9
 0.2481499858010274    1    1   13   13
 -0.03754284190398804    1    1   14    1
 2.03552121345765e-13    1    1   14    2
 0.0413938212209209    1    1   14    3
 -6.055848172589313e-13    1    1   14    4
 -0.03423760038449779    1    1   14    7
 -7.269870680482555e-13    1    1   14   10
 0.02491679907743911    1    1   14   11
 0.2176909159617822    1    1   14   14
 1.755498755216511e-13    1    1   15    1
 -0.01168371434083032    1    1   15    2
 -6.976037520070411e-14    1    1   15    3
 0.03571850287037182    1    1   15    4
 4.358827136354882e-13    1    1   15    7
 0.02066125533972637    1    1   15   10
 -6.130603214426752e-13    1    1   15   11
 -1.038283866254132e-12    1    1   15   14
 0.2210260725079033    1    1   15   15
 5.576287601865113e-13    1    1   16    5
 7.883572774276424e-14    1    1   16    6
 -0.04308714312835544    1    1   16    8
 -0.02268352386136393    1    1   16    9
 6.390603494860024e-13    1    1   16   12
 1.26092287691413e-12    1    1   16   13
 0.2732661861542141    1    1   16   16
 8.027923996561201e-14    1    1   17    5
 -5.559897919177256e-13    1    1   17    6
 -0.02268352386136387    1    1   17    8
 0.0430871431283557    1    1   17    9
 -1.261887712329319e-12    1    1   17   12
 6.386640377839937e-13    1    1   17   13
 0.2732661861542141    1    1   17   17
 5.213357331804381e-13    1    1   18    1
 -0.02117656917127526    1    1   18    2
 -7.263540184075561e-13    1    1   18    3
 0.01566949999506755    1    1   18    4
 -5.295567900626569e-13    1    1   18    7
 0.04315280358264131    1    1   18   10
 9.45647788556449e-13    1    1   18   11
 7.956573160880309e-14    1    1   18   14
 -0.05738781728276944    1    1   18   15
 0.2921723104163578    1    1   18   18
 -1.002305915366127e-11    2    1    1    1
 0.7281774791950746    2    1    2    1
 1.001885075236282e-11    2    1    2    2
 4.885760140605417e-13    2    1    3    1
 -0.07095789668703921    2    1    3    2
 -0.04233433238958852    2    1    4    1
 -2.916083727443444e-13    2    1    4    2
 0.0570507412793524    2    1    4    3
 1.795891261541613e-15    2    1    4    4
 6.226150893622107e-14    2    1    7    1
 -0.009117462984126684    2    1    7    2
 -0.03907401417682904    2    1    7    4
 -1.414322908650235e-15    2    1    7    7
 0.03245009468989353    2    1    8    5
 -0.01157323398948355    2    1    8    6
 0.01157323398948354    2    1    9    5
 0.03245009468989358    2    1    9    6
 -0.05770182083296631    2    1   10    1
 -3.97402229522478e-13    2    1   10    2
 0.05576660063042849    2    1   10    3
 -1.1113099247734e-15    2    1   10    4
 0.009293022245608715    2    1   10    7
 2.268231890666664e-15    2    1   10   10
 -7.298943821354573e-14    2    1   11    1
 0.01202860634777578    2    1   11    2
 -8.113013995233772e-15    2    1   11    3
 0.01195959763806435    2    1   11    4
 0.02345594560038698    2    1   11   10
 -8.829074132017584e-15    2    1   11   11
 -0.0003046916393826564    2    1   12    8
 0.01927649075063346    2    1   12    9
 1.266837399354854e-15    2    1   13    5
 0.01927649075063323    2    1   13    8
 0.0003046916393826253    2    1   13    9
 5.425087146209285e-15    2    1   13   13
 2.299611752957837e-13    2    1   14    1
 -0.03386567042057952    2    1   14    2
 2.69793134775961e-15    2    1   14    3
 0.044608521776905    2    1   14    4
 -3.289748667651244e-15    2    1   14    7
 0.05312478462982738    2    1   14   10
 -5.567644519079619e-15    2    1   14   11
 2.340932044444618e-14    2    1   14   14
 -0.006549121557945063    2    1   15    1
 -4.130184956276257e-14    2    1   15    2
 0.004324799741366236    2    1   15    3
 -3.740775192153354e-15    2    1   15    4
 -0.0316703898836185    2    1   15    7
 -4.1258782089026e-15    2    1   15   10
 0.04433980345033407    2    1   15   11
 0.07569135939414984    2    1   15   14
 -1.309639011972241e-14    2    1   15   15
 -0.04041995134045421    2    1   16    5
 -0.005778697173886433    2    1   16    6
 1.014431729675418e-15    2    1   16    8
 -0.0464354130004647    2    1   16   12
 -0.09169053641743241    2    1   16   13
 -4.361174436041627e-15    2    1   16   16
 -0.00577869717388661    2    1   17    5
 0.04041995134045405    2    1   17    6
 0.09169053641743248    2    1   17   12
 -0.04643541300046469    2    1   17   13
 -2.314702598677604e-15    2    1   17   16
 -0.02670197748807563    2    1   18    1
 -1.742220580675899e-13    2    1   18    2
 0.05252514914585325    2    1   18    3
 -1.656351399212412e-15    2    1   18    4
 0.03842745110092436    2    1   18    7
 -5.239519015758426e-15    2    1   18   10
 -0.06866088669416831    2    1   18   11
 -0.006025119449787003    2    1   18   14
 -6.510760855739148e-15    2    1   18   15
 -7.105427357601002e-15    2    1   18   18
 0.9213922536193172    2    2    1    1
 1.001857728017738e-11    2    2    2    1
 0.9217616047011125    2    2    2    2
 -0.06929957756880184    2    2    3    1
 -1.452727359803705e-12    2    2    3    2
 0.2767955443331894    2    2    3    3
 -2.823983214478338e-13    2    2    4    1
 -0.04368597089197341    2    2    4    2
 7.842597415063886e-13    2    2    4    3
 0.1879636841877434    2    2    4    4
 0.1850129774248748    2    2    5    5
 0.1850129774248747    2    2    6    6
 -0.006563337171136218    2    2    7    1
 -1.704718195693382e-13    2    2    7    2
 0.04051290229492811    2    2    7    3
 -5.388124881314745e-13    2    2    7    4
 0.1783524753050469    2    2    7    7
 4.462909901882323e-13    2    2    8    5
 -1.59094673373337e-13    2    2    8    6
 0.1554267986460307    2    2    8    8
 1.59300441309466e-13    2    2    9    5
 4.46497467599468e-13    2    2    9    6
 0.155426798646031    2    2    9    9
 -3.861378242791826e-13    2    2   10    1
 -0.05947171964008716    2    2   10    2
 7.638701245576282e-13    2    2   10    3
 0.06091153286844984    2    2   10    4
 1.254172998800662e-13    2    2   10    7
 0.1925287804482121    2    2   10   10
 0.006093114202691014    2    2   11    1
 2.167629518710326e-13    2    2   11    2
 -0.04919680025048365    2    2   11    3
 1.565245522877311e-13    2    2   11    4
 -0.05843209748659689    2    2   11    7
 3.204950535862436e-13    2    2   11   10
 0.2382349366353812    2    2   11   11
 0.01967731814652323    2    2   12    5
 0.05805715403232254    2    2   12    6
 -4.14812284915806e-15    2    2   12    8
 2.648362934940345e-13    2    2   12    9
 0.2481495903436021    2    2   12   12
 0.05805715403232268    2    2   13    5
 -0.01967731814652333    2    2   13    6
 2.660226683033337e-13    2    2   13    8
 4.285372189204134e-15    2    2   13    9
 0.2481495903436018    2    2   13   13
 -0.03755479847230946    2    2   14    1
 -7.286499592859297e-13    2    2   14    2
 0.04140522685382081    2    2   14    3
 6.21942045188925e-13    2    2   14    4
 -0.03424406484999454    2    2   14    7
 7.358523036513327e-13    2    2   14   10
 0.02493008551478982    2    2   14   11
 0.217708935168009    2    2   14   14
 -5.049244119324341e-15    2    2   15    1
 -0.01166945547319678    2    2   15    2
 4.922749964994551e-14    2    2   15    3
 0.03573224783250663    2    2   15    4
 -4.359992545413777e-13    2    2   15    7
 0.02067365941068    2    2   15   10
 6.078371647776264e-13    2    2   15   11
 1.043533659385436e-12    2    2   15   14
 0.2210436298354355    2    2   15   15
 -5.548915106581371e-13    2    2   16    5
 -8.020238173776471e-14    2    2   16    6
 -0.04308832000011179    2    2   16    8
 -0.02268414343362214    2    2   16    9
 -6.388926382513194e-13    2    2   16   12
 -1.262519367564901e-12    2    2   16   13
 0.2732776274635655    2    2   16   16
 -7.877578099463144e-14    2    2   17    5
 5.565057129416806e-13    2    2   17    6
 -0.02268414343362206    2    2   17    8
 0.04308832000011203    2    2   17    9
 1.261652770555383e-12    2    2   17   12
 -6.393081605016647e-13    2    2   17   13
 0.2732776274635655    2    2   17   17
 -2.132071581304388e-13    2    2   18    1
 -0.02121196075453052    2    2   18    2
 7.194585615000103e-13    2    2   18    3
 0.01566103967256544    2    2   18    4
 5.277730925589706e-13    2    2   18    7
 0.04314095285671719    2    2   18   10
 -9.441559335985487e-13    2    2   18   11
 -8.788123808572167e-14    2    2   18   14
 -0.05739227361652544    2    2   18   15
 0.2921645190029172    2    2   18   18
 -0.069243820070843    3    1    1    1
 4.885596684673269e-13    3    1    2    1
 -0.06929957756880184    3    1    2    2
 0.009592749392324313    3    1    3    1
 -0.0008867013423546516    3    1    3    3
 -7.768598033858202e-14    3    1    4    1
 0.005633392154706623    3    1    4    2
 1.224971070188724e-14    3    1    4    3
 -0.001292725646612222    3    1    4    4
 0.0002581896593336469    3    1    5    5
 0.0002581896593336477    3    1    6    6
 0.001336365567756146    3    1    7    1
 0.0006561022256165195    3    1    7    3
 -5.320074484054855e-15    3    1    7    4
 -0.0001170361938099212    3    1    7    7
 3.071027078454333e-15    3    1    8    5
 -1.09510055809917e-15    3    1    8    6
 -7.852927367819777e-05    3    1    8    8
 1.094711997922925e-15    3    1    9    5
 3.068395109762293e-15    3    1    9    6
 -7.852927367819874e-05    3    1    9    9
 -1.070557647168994e-13    3    1   10    1
 0.007757643073729132    3    1   10    2
 1.387266042461925e-14    3    1   10    3
 -0.00121032141092545    3    1   10    4
 -0.001839450763209568    3    1   10   10
 -0.001938171777199491    3    1   11    1
 -1.721185330173396e-15    3    1   11    2
 -0.0006683017786773406    3    1   11    3
 3.403607536962001e-15    3    1   11    4
 -2.591466613862864e-05    3    1   11    7
 5.986677762515517e-15    3    1   11   10
 -0.0003693120646887494    3    1   11   11
 -7.068685647748284e-05    3    1   12    5
 -0.0002085587926167159    3    1   12    6
 2.589803048464886e-15    3    1   12    9
 -0.0014799165917069    3    1   12   12
 -0.0002085587926167189    3    1   13    5
 7.068685647748356e-05    3    1   13    6
 2.58845484358898e-15    3    1   13    8
 -0.001479916591706898    3    1   13   13
 0.003682692980471377    3    1   14    1
 -0.001082302776959393    3    1   14    3
 9.591499599796467e-15    3    1   14    4
 0.0004843446941654227    3    1   14    7
 1.163890715657399e-14    3    1   14   10
 -0.00121928098520607    3    1   14   11
 -0.001810753373328939    3    1   14   14
 1.984541951954073e-15    3    1   15    1
 -0.0002308001920209234    3    1   15    2
 2.068893261940829e-15    3    1   15    3
 -0.000923870971944586    3    1   15    4
 -6.059981627350888e-15    3    1   15    7
 -0.0009699602434733328    3    1   15   10
 1.189239863972754e-14    3    1   15   11
 1.589508506817605e-14    3    1   15   14
 -0.002194495476203827    3    1   15   15
 -5.406259451273194e-15    3    1   16    5
 0.0002334241957738276    3    1   16    8
 0.0001228877788179654    3    1   16    9
 -9.096794861059532e-15    3    1   16   12
 -1.793311145824587e-14    3    1   16   13
 -0.002559969804063582    3    1   16   16
 5.396189373866237e-15    3    1   17    6
 0.0001228877788179638    3    1   17    8
 -0.0002334241957738317    3    1   17    9
 1.796408537307941e-14    3    1   17   12
 -9.084051792878579e-15    3    1   17   13
 -0.002559969804063581    3    1   17   17
 -4.973247618410926e-14    3    1   18    1
 0.003602107922659026    3    1   18    2
 3.675788170400034e-15    3    1   18    3
 0.0004130532141302329    3    1   18    4
 4.913746796055562e-15    3    1   18    7
 0.0007004273840322214    3    1   18   10
 -1.384749127925504e-14    3    1   18   11
 -5.060383692404949e-15    3    1   18   14
 0.001452477962525237    3    1   18   15
 -0.00207926699752575    3    1   18   18
 5.006080813917019e-13    3    2    1    1
 -0.07095789668703917    3    2    2    1
 -1.452782373484846e-12    3    2    2    2
 0.009580277668809601    3    2    3    2
 -5.81867318883201e-15    3    2    3    3
 0.005655674797445558    3    2    4    1
 7.767100897205813e-14    3    2    4    2
 -0.001794336829135933    3    2    4    3
 -8.980766403240604e-15    3    2    4    4
 1.840269949527219e-15    3    2    5    5
 1.835147970346279e-15    3    2    6    6
 0.001298693594335367    3    2    7    2
 4.678447388600113e-15    3    2    7    3
 0.0007829008687225324    3    2    7    4
 -0.00045510940840072    3    2    8    5
 0.0001623134762647512    3    2    8    6
 -0.0001623134762647512    3    2    9    5
 -0.0004551094084007208    3    2    9    6
 0.007786847926710161    3    2   10    1
 1.068746028867837e-13    3    2   10    2
 -0.002030504531139867    3    2   10    3
 -8.309086556849255e-15    3    2   10    4
 -4.22066182125984e-05    3    2   10    7
 -1.273409331816513e-14    3    2   10   10
 -1.813914839414024e-15    3    2   11    1
 -0.001845192391914972    3    2   11    2
 -4.496345588579296e-15    3    2   11    3
 -0.0004694544043633423    3    2   11    4
 -0.000833798095482231    3    2   11   10
 -1.983806042437393e-15    3    2   11   11
 -1.376727022724849e-15    3    2   12    6
 6.072656969309175e-06    3    2   12    8
 -0.0003841901147594181    3    2   12    9
 -1.001267996010167e-14    3    2   12   12
 -1.395441323081936e-15    3    2   13    5
 -0.0003841901147594118    3    2   13    8
 -6.072656969308528e-06    3    2   13    9
 -1.019312618136144e-14    3    2   13   13
 0.003745774665902205    3    2   14    2
 -7.558180381037905e-15    3    2   14    3
 -0.001431686738553673    3    2   14    4
 3.473428577591279e-15    3    2   14    7
 -0.001745509024801647    3    2   14   10
 -8.289257552848281e-15    3    2   14   11
 -1.32152032888305e-14    3    2   14   14
 -0.0001422803483445262    3    2   15    1
 -3.16757203029957e-15    3    2   15    2
 -0.0002870365808895948    3    2   15    3
 -6.312990460725678e-15    3    2   15    4
 0.0008816990480501069    3    2   15    7
 -6.611926988100902e-15    3    2   15   10
 -0.001690949903298452    3    2   15   11
 -0.002349312922704505    3    2   15   14
 -1.47959200584825e-14    3    2   15   15
 0.0008006399488017616    3    2   16    5
 0.0001144646555972154    3    2   16    6
 1.554019412228904e-15    3    2   16    8
 0.001335432062981681    3    2   16   12
 0.002636920278981977    3    2   16   13
 -1.740315346041014e-14    3    2   16   16
 0.0001144646555972197    3    2   17    5
 -0.000800639948801757    3    2   17    6
 -1.574771955667543e-15    3    2   17    9
 -0.00263692027898198    3    2   17   12
 0.001335432062981681    3    2   17   13
 -1.75168039795448e-14    3    2   17   17
 0.003508142945264608    3    2   18    1
 4.813162461727995e-14    3    2   18    2
 -0.0005448626101496619    3    2   18    3
 2.999878003416856e-15    3    2   18    4
 -0.0007311906485989275    3    2   18    7
 5.145670712895959e-15    3    2   18   10
 0.002009280209627713    3    2   18   11
 0.0007720958929977489    3    2   18   14
 9.992094130488652e-15    3    2   18   15
 -1.396083769422685e-14    3    2   18   18
 0.2768135485860246    3    3    1    1
 0.2767955443331894    3    3    2    2
 -0.0008867013423546557    3    3    3    1
 -5.822942333256432e-15    3    3    3    2
 0.2352239108878518    3    3    3    3
 1.663563930500034e-14    3    3    4    1
 -0.002430917188345501    3    3    4    2
 0.159006077126521    3    3    4    4
 0.179026282082526    3    3    5    5
 0.1790262820825259    3    3    6    6
 0.001898602151530919    3    3    7    1
 1.319846289967264e-14    3    3    7    2
 0.03808857342053752    3    3    7    3
 0.1613195396161703    3    3    7    7
 0.1482211524789742    3    3    8    8
 0.1482211524789745    3    3    9    9
 2.106493991081904e-14    3    3   10    1
 -0.003204925611215737    3    3   10    2
 -1.598233627276594e-15    3    3   10    3
 0.03818597663180798    3    3   10    4
 -1.71910117333379e-15    3    3   10    7
 0.1580683385378311    3    3   10   10
 -0.004819322621947691    3    3   11    1
 -3.239213727372817e-14    3    3   11    2
 -0.03512989340816786    3    3   11    3
 -4.546812595845642e-15    3    3   11    4
 -0.04072519599032556    3    3   11    7
 0.2005160223181998    3    3   11   11
 0.01369119204966322    3    3   12    5
 0.04039532418973735    3    3   12    6
 0.1975001560933999    3    3   12   12
 0.04039532418973741    3    3   13    5
 -0.01369119204966329    3    3   13    6
 0.1975001560933997    3    3   13   13
 -0.004512758668967719    3    3   14    1
 -3.179966659212458e-14    3    3   14    2
 0.01671490710061748    3    3   14    3
 3.89615250352348e-15    3    3   14    4
 -0.0218792334858225    3    3   14    7
 0.0006781597304947719    3    3   14   11
 0.1737010495505134    3    3   14   14
 3.606966656177328e-14    3    3   15    1
 -0.005203351432968535    3    3   15    2
 -5.504752440442018e-15    3    3   15    3
 0.01429168667763853    3    3   15    4
 0.001462252634323641    3    3   15   10
 2.462896036324865e-15    3    3   15   11
 0.1719335567294911    3    3   15   15
 1.134434409777155e-15    3    3   16    5
 -0.03061564480005194    3    3   16    8
 -0.01611781749567871    3    3   16    9
 0.2026899439511962    3    3   16   16
 -0.0161178174956787    3    3   17    8
 0.03061564480005204    3    3   17    9
 0.2026899439511962    3    3   17   17
 -3.095693820203744e-14    3    3   18    1
 0.004625952610566201    3    3   18    2
 -2.214769476984756e-15    3    3   18    3
 0.01289020270917758    3    3   18    4
 -1.043745884942232e-15    3    3   18    7
 0.03747598709592511    3    3   18   10
 -0.02462628304342121    3    3   18   15
 0.2209449810041829    3    3   18   18
 8.826066849169434e-13    4    1    1    1
 -0.04233433238958849    4    1    2    1
 -2.824172827477592e-13    4    1    2    2
 -7.768353482118024e-14    4    1    3    1
 0.005655674797445553    4    1    3    2
 1.664220910012736e-14    4    1    3    3
 0.003665301811625422    4    1    4    1
 -0.000308512879195249    4    1    4    3
 2.830410202748337e-15    4    1    5    5
 2.831137825970755e-15    4    1    6    6
 -5.685644039338366e-15    4    1    7    1
 0.0004272877734885267    4    1    7    2
 7.348960175818443e-15    4    1    7    3
 -0.0007644719348548093    4    1    7    4
 1.110571225547343e-15    4    1    7    7
 0.0002761252853645449    4    1    8    5
 -9.847929777943211e-05    4    1    8    6
 9.847929777943191e-05    4    1    9    5
 0.0002761252853645448    4    1    9    6
 0.00511095981160392    4    1   10    1
 -0.0008491190653800143    4    1   10    3
 5.146787335074483e-15    4    1   10    4
 -4.343174507218553e-05    4    1   10    7
 6.327652200937813e-15    4    1   10   10
 -1.150852318668476e-15    4    1   11    1
 -9.275006428361451e-06    4    1   11    2
 -9.04672899058972e-15    4    1   11    3
 0.0002176369123746908    4    1   11    4
 -5.405284131704339e-15    4    1   11    7
 0.000325842301948672    4    1   11   10
 1.323113955190344e-14    4    1   11   11
 1.17937249946295e-15    4    1   12    5
 3.480407651553177e-15    4    1   12    6
 7.89727109659599e-07    4    1   12    8
 -4.996253706115046e-05    4    1   12    9
 1.194447314425881e-14    4    1   12   12
 3.479285409673322e-15    4    1   13    5
 -1.179439027685309e-15    4    1   13    6
 -4.996253706114914e-05    4    1   13    8
 -7.897271096595939e-07    4    1   13    9
 1.188240954185824e-14    4    1   13   13
 -4.151983901558713e-14    4    1   14    1
 0.003020411772054841    4    1   14    2
 0.0001399496946433005    4    1   14    4
 -3.361905395523272e-05    4    1   14   10
 1.908312073340516e-15    4    1   14   14
 0.001065076643750839    4    1   15    1
 0.0005442459385615541    4    1   15    3
 -2.315391340495687e-15    4    1   15    4
 -6.66443059512977e-05    4    1   15    7
 -0.0006158791178813114    4    1   15   11
 0.0001968840285745404    4    1   15   14
 4.321280334769226e-15    4    1   15   15
 0.0001711535141787615    4    1   16    5
 2.446921126536959e-05    4    1   16    6
 -1.266548911446046e-15    4    1   16    8
 0.0004675101968846694    4    1   16   12
 0.0009231372774168244    4    1   16   13
 1.337633224249374e-14    4    1   16   16
 2.44692112653705e-05    4    1   17    5
 -0.0001711535141787604    4    1   17    6
 1.260257355873879e-15    4    1   17    9
 -0.0009231372774168252    4    1   17   12
 0.0004675101968846694    4    1   17   13
 1.33361204024407e-14    4    1   17   17
 0.0007090978081756707    4    1   18    1
 -0.0008882184128799597    4    1   18    3
 2.634801407399701e-15    4    1   18    4
 -0.0003735652747259473    4    1   18    7
 2.900511567465559e-15    4    1   18   10
 0.001318665515471047    4    1   18   11
 0.0002022304403697697    4    1   18   14
 -7.440607112212014e-15    4    1   18   15
 1.96414065567474e-14    4    1   18   18
 -0.04365720870909779    4    2    1    1
 -2.916335418657678e-13    4    2    2    1
 -0.04368597089197339    4    2    2    2
 0.005633392154706618    4    2    3    1
 7.767243743817955e-14    4    2    3    2
 -0.002430917188345507    4    2    3    3
 0.003686817890811175    4    2    4    2
 -2.171028801239651e-15    4    2    4    3
 -0.0001023347418666278    4    2    4    4
 -0.0004104738108724879    4    2    5    5
 -0.0004104738108724864    4    2    6    6
 0.0003928585852915449    4    2    7    1
 5.610132165231355e-15    4    2    7    2
 -0.001080906661138345    4    2    7    3
 -5.198265243174087e-15    4    2    7    4
 -0.0001608775545752516    4    2    7    7
 1.861290789311503e-15    4    2    8    5
 2.126626570182405e-05    4    2    8    8
 1.859497493692202e-15    4    2    9    6
 2.126626570182327e-05    4    2    9    9
 0.005139365642837531    4    2   10    2
 -5.84467937722514e-15    4    2   10    3
 -0.0007465593741248993    4    2   10    4
 -0.0009352974700536093    4    2   10   10
 7.401384322365565e-05    4    2   11    1
 0.001342458978585299    4    2   11    3
 1.534561439296719e-15    4    2   11    4
 0.0007935035074555098    4    2   11    7
 2.212303414093901e-15    4    2   11   10
 -0.001932208514258833    4    2   11   11
 -0.0001730873034793476    4    2   12    5
 -0.0005106872879887532    4    2   12    6
 -0.001736502090290545    4    2   12   12
 -0.0005106872879887555    4    2   13    5
 0.0001730873034793485    4    2   13    6
 -0.001736502090290542    4    2   13   13
 0.003070521132115431    4    2   14    1
 4.228735159543719e-14    4    2   14    2
 -0.0001370906050562564    4    2   14    3
 -0.0001165214298194219    4    2   14    7
 -6.30551185672246e-05    4    2   14   11
 -0.0002652805206682865    4    2   14   14
 0.001133647815598007    4    2   15    2
 3.893802717788296e-15    4    2   15    3
 0.0003420771562973389    4    2   15    4
 0.0001144735190124736    4    2   15   10
 -4.429022430585275e-15    4    2   15   11
 1.300446959437904e-15    4    2   15   14
 -0.0006621780088736746    4    2   15   15
 1.203288306949907e-15    4    2   16    5
 0.0001828511596650343    4    2   16    8
 9.626325493393705e-05    4    2   16    9
 3.249931336265449e-15    4    2   16   12
 6.42393203484447e-15    4    2   16   13
 -0.001942304858335997    4    2   16   16
 -1.218349327035907e-15    4    2   17    6
 9.626325493393572e-05    4    2   17    8
 -0.0001828511596650374    4    2   17    9
 -6.41769266218317e-15    4    2   17   12
 3.252963858972666e-15    4    2   17   13
 -0.001942304858335998    4    2   17   17
 0.0006378339019280577    4    2   18    2
 -6.030329585693163e-15    4    2   18    3
 -0.0003869495175093428    4    2   18    4
 -2.627247874154392e-15    4    2   18    7
 -0.0003829643206731167    4    2   18   10
 9.045777646533953e-15    4    2   18   11
 1.570364906280137e-15    4    2   18   14
 0.001061464292752436    4    2   18   15
 -0.002882196636730453    4    2   18   18
 -7.858950729506489e-13    4    3    1    1
 0.05705074127935239    4    3    2    1
 7.842883144000447e-13    4    3    2    2
 1.224893210807349e-14    4    3    3    1
 -0.001794336829135931    4    3    3    2
 -0.0003085128791952508    4    3    4    1
 -2.172587179944793e-15    4    3    4    2
 0.02545680344963501    4    3    4    3
 1.028574107511047e-15    4    3    4    4
 6.795273793870393e-15    4    3    7    1
 -0.001016608454443756    4    3    7    2
 -0.03131286202952556    4    3    7    4
 -1.708870082581544e-15    4    3    7    7
 0.02188157895004623    4    3    8    5
 -0.007804002905640632    4    3    8    6
 0.007804002905640625    4    3    9    5
 0.02188157895004626    4    3    9    6
 -0.0004824081182487388    4    3   10    1
 -3.415509748051105e-15    4    3   10    2
 0.01670795247447109    4    3   10    3
 -1.177566870112616e-15    4    3   10    4
 0.01037661385308787    4    3   10    7
 1.89115261016897e-15    4    3   10   10
 -1.401068953055181e-14    4    3   11    1
 0.002096904425395282    4    3   11    2
 -2.238656246132589e-15    4    3   11    3
 0.004268095464989782    4    3   11    4
 0.016009906437635    4    3   11   10
 -4.490506946710822e-15    4    3   11   11
 -6.989891592451219e-05    4    3   12    8
 0.004422194875540722    4    3   12    9
 0.004422194875540628    4    3   13    8
 6.989891592449761e-05    4    3   13    9
 1.107551559238772e-15    4    3   13   13
 -3.738658245405082e-15    4    3   14    1
 0.0005828393213385954    4    3   14    2
 0.01449632530931134    4    3   14    4
 0.02088115777621801    4    3   14   10
 -2.851909801331198e-15    4    3   14   11
 9.600847600487524e-15    4    3   14   14
 0.001563497631594055    4    3   15    1
 1.072230578138474e-14    4    3   15    2
 0.002519253740520249    4    3   15    3
 -1.066285579191925e-15    4    3   15    4
 -0.01150649205952042    4    3   15    7
 -2.210464692230497e-15    4    3   15   10
 0.00862973052746973    4    3   15   11
 0.03187414069866334    4    3   15   14
 -7.159797718522886e-15    4    3   15   15
 -0.01330413188622512    4    3   16    5
 -0.001902044579034305    4    3   16    6
 -0.01420105831102039    4    3   16   12
 -0.02804115587858918    4    3   16   13
 -1.899252486781977e-15    4    3   16   16
 -0.001902044579034374    4    3   17    5
 0.01330413188622506    4    3   17    6
 0.02804115587858922    4    3   17   12
 -0.0142010583110204    4    3   17   13
 -0.002378284208507202    4    3   18    1
 -1.566343855853703e-14    4    3   18    2
 0.01180305801559711    4    3   18    3
 0.01287482811584836    4    3   18    7
 -1.522572512412979e-15    4    3   18   10
 -0.01664138591650572    4    3   18   11
 0.0002831256062419603    4    3   18   14
 -1.64834990187286e-15    4    3   18   15
 -1.887379141862766e-15    4    3   18   18
 0.1879499867212247    4    4    1    1
 1.754659106926495e-15    4    4    2    1
 0.1879636841877435    4    4    2    2
 -0.001292725646612226    4    4    3    1
 -8.981191265573801e-15    4    4    3    2
 0.159006077126521    4    4    3    3
 -0.0001023347418666374    4    4    4    2
 1.029546263262283e-15    4    4    4    3
 0.1609642281937221    4    4    4    4
 0.1392843263870797    4    4    5    5
 0.1392843263870797    4    4    6    6
 -0.0008908329938132535    4    4    7    1
 -6.176151116989838e-15    4    4    7    2
 -0.001927004614852165    4    4    7    3
 -2.068468688513351e-15    4    4    7    4
 0.1549053078765635    4    4    7    7
 0.1374581759998471    4    4    8    8
 1.007533398681069e-15    4    4    9    6
 0.1374581759998473    4    4    9    9
 2.04217969336159e-15    4    4   10    1
 -0.0003107753412212934    4    4   10    2
 0.01248356777856955    4    4   10    4
 0.1466850023752165    4    4   10   10
 0.0017899351929265    4    4   11    1
 1.252038727562376e-14    4    4   11    2
 -0.005290121869510818    4    4   11    3