&FCI NORB=6,NELEC= 4,MS2=0,
 ORBSYM=1,1,1,1,1,1,
 ISYM=1,
&END
 1.6641543685248268    1    1    1    1
-0.1158818872224506    1    1    2    1
 0.3803318975264679    1    1    2    2
-0.1405494044606444    1    1    3    1
 0.0129005969745745    1    1    3    2
 0.4000575599027990    1    1    3    3
 0.3969407392816175    1    1    4    4
 0.3969407392816177    1    1    5    5
 0.0497543236447738    1    1    6    1
-0.0310779419426723    1    1    6    2
 0.0139109361719153    1    1    6    3
 0.3639841252486873    1    1    6    6
-0.1158818872224506    2    1    1    1
 0.0147046840243632    2    1    2    1
 0.0072872435056471    2    1    2    2
 0.0119105817718450    2    1    3    1
-0.0036360598490289    2    1    3    2
-0.0116964176410188    2    1    3    3
-0.0042817449981490    2    1    4    4
-0.0042817449981490    2    1    5    5
-0.0090057280970737    2    1    6    1
 0.0057105371998202    2    1    6    2
-0.0038230175191595    2    1    6    3
 0.0042957059256372    2    1    6    6
 0.3803318975264679    2    2    1    1
 0.0072872435056471    2    2    2    1
 0.4972092345801968    2    2    2    2
-0.0167790494426835    2    2    3    1
-0.0454712422349660    2    2    3    2
 0.2258271667298890    2    2    3    3
 0.2750973689661459    2    2    4    4
 0.2750973689661459    2    2    5    5
-0.0059879742234775    2    2    6    1
 0.1337463003651559    2    2    6    2
-0.0497305813398136    2    2    6    3
 0.4598721780653990    2    2    6    6
-0.1405494044606445    3    1    1    1
 0.0119105817718450    3    1    2    1
-0.0167790494426835    3    1    2    2
 0.0227008582659870    3    1    3    1
-0.0001289853010003    3    1    3    2
 0.0018872885163389    3    1    3    3
-0.0046796282324423    3    1    4    4
-0.0046796282324423    3    1    5    5
-0.0023051277794376    3    1    6    1
-0.0003966119904774    3    1    6    2
 0.0046695137517458    3    1    6    3
-0.0112623952695551    3    1    6    6
 0.0129005969745745    3    2    1    1
-0.0036360598490289    3    2    2    1
-0.0454712422349660    3    2    2    2
-0.0001289853010003    3    2    3    1
 0.0113625063793784    3    2    3    2
 0.0059941695150264    3    2    3    3
 0.0047039138960982    3    2    4    4
 0.0047039138960982    3    2    5    5
 0.0013557653247747    3    2    6    1
-0.0324387653312400    3    2    6    2
 0.0075567203351549    3    2    6    3
-0.0405184450786257    3    2    6    6
 0.4000575599027990    3    3    1    1
-0.0116964176410188    3    3    2    1
 0.2258271667298890    3    3    2    2
 0.0018872885163389    3    3    3    1
 0.0059941695150265    3    3    3    2
 0.3404526782444254    3    3    3    3
 0.2827413133505631    3    3    4    4
 0.2827413133505631    3    3    5    5
 0.0098085878485568    3    3    6    1
-0.0105354602351736    3    3    6    2
 0.0355345266647755    3    3    6    3
 0.2415943399844395    3    3    6    6
 0.0100577300962173    4    1    4    1
 0.0074428132168749    4    1    4    2
 0.0102123665479111    4    1    4    3
-0.0061215262393634    4    1    6    4
 0.0074428132168749    4    2    4    1
 0.0236120305573839    4    2    4    2
 0.0189559291596214    4    2    4    3
-0.0195829085930466    4    2    6    4
 0.0102123665479111    4    3    4    1
 0.0189559291596214    4    3    4    2
 0.0413831058991086    4    3    4    3
-0.0141864838384965    4    3    6    4
 0.3969407392816176    4    4    1    1
-0.0042817449981490    4    4    2    1
 0.2750973689661459    4    4    2    2
-0.0046796282324423    4    4    3    1
 0.0047039138960982    4    4    3    2
 0.2827413133505631    4    4    3    3
 0.3131245659726227    4    4    4    4
 0.0000000000000001    4    4    5    4
 0.2793744337886089    4    4    5    5
 0.0002001976896213    4    4    6    1
-0.0112200257801775    4    4    6    2
 0.0008105261298126    4    4    6    3
 0.2699828206884231    4    4    6    6
 0.0100577300962173    5    1    5    1
 0.0074428132168749    5    1    5    2
 0.0102123665479111    5    1    5    3
-0.0061215262393634    5    1    6    5
 0.0074428132168749    5    2    5    1
 0.0236120305573839    5    2    5    2
 0.0189559291596214    5    2    5    3
-0.0195829085930466    5    2    6    5
 0.0102123665479111    5    3    5    1
 0.0189559291596214    5    3    5    2
 0.0413831058991086    5    3    5    3
-0.0141864838384965    5    3    6    5
 0.0168750660920070    5    4    5    4
 0.3969407392816177    5    5    1    1
-0.0042817449981490    5    5    2    1
 0.2750973689661459    5    5    2    2
-0.0046796282324423    5    5    3    1
 0.0047039138960982    5    5    3    2
 0.2827413133505631    5    5    3    3
 0.2793744337886088    5    5    4    4
 0.3131245659726228    5    5    5    5
 0.0002001976896213    5    5    6    1
-0.0112200257801775    5    5    6    2
 0.0008105261298126    5    5    6    3
 0.2699828206884233    5    5    6    6
 0.0497543236447738    6    1    1    1
-0.0090057280970737    6    1    2    1
-0.0059879742234775    6    1    2    2
-0.0023051277794376    6    1    3    1
 0.0013557653247747    6    1    3    2
 0.0098085878485568    6    1    3    3
 0.0002001976896214    6    1    4    4
 0.0002001976896214    6    1    5    5
 0.0080640153245112    6    1    6    1
 0.0001821892971803    6    1    6    2
 0.0039677284507274    6    1    6    3
-0.0022851686100475    6    1    6    6
-0.0310779419426723    6    2    1    1
 0.0057105371998202    6    2    2    1
 0.1337463003651559    6    2    2    2
-0.0003966119904774    6    2    3    1
-0.0324387653312400    6    2    3    2
-0.0105354602351735    6    2    3    3
-0.0112200257801775    6    2    4    4
-0.0112200257801775    6    2    5    5
 0.0001821892971803    6    2    6    1
 0.1242414619946019    6    2    6    2
-0.0297088828275364    6    2    6    3
 0.1411569397865237    6    2    6    6
 0.0139109361719154    6    3    1    1
-0.0038230175191595    6    3    2    1
-0.0497305813398137    6    3    2    2
 0.0046695137517458    6    3    3    1
 0.0075567203351549    6    3    3    2
 0.0355345266647756    6    3    3    3
 0.0008105261298126    6    3    4    4
 0.0008105261298126    6    3    5    5
 0.0039677284507274    6    3    6    1
-0.0297088828275364    6    3    6    2
 0.0251256417973309    6    3    6    3
-0.0423377979329206    6    3    6    6
-0.0061215262393634    6    4    4    1
-0.0195829085930466    6    4    4    2
-0.0141864838384965    6    4    4    3
 0.0198270622276295    6    4    6    4
-0.0061215262393634    6    5    5    1
-0.0195829085930466    6    5    5    2
-0.0141864838384965    6    5    5    3
 0.0198270622276295    6    5    6    5
 0.3639841252486873    6    6    1    1
 0.0042957059256372    6    6    2    1
 0.4598721780653990    6    6    2    2
-0.0112623952695551    6    6    3    1
-0.0405184450786257    6    6    3    2
 0.2415943399844395    6    6    3    3
 0.2699828206884232    6    6    4    4
 0.2699828206884232    6    6    5    5
-0.0022851686100475    6    6    6    1
 0.1411569397865237    6    6    6    2
-0.0423377979329206    6    6    6    3
 0.4583092725685339    6    6    6    6
-4.7952033279982569    1    1    0    0
 0.1085946438728243    2    1    0    0
-1.5373456052742169    2    2    0    0
 0.1704714435405794    3    1    0    0
 0.0315806340787476    3    2    0    0
-1.1382458544327081    3    3    0    0
 0.0000000000000002    4    3    0    0
-1.1478267311941384    4    4    0    0
-0.0000000000000001    5    4    0    0
-1.1478267311941384    5    5    0    0
-0.0320678380011577    6    1    0    0
-0.0805961446261221    6    2    0    0
 0.0368953957086456    6    3    0    0
-0.0000000000000002    6    5    0    0
-0.9412766284281520    6    6    0    0
 1.0583544218400001    0    0    0    0
