 &FCI NORB=6,NELEC=0,MS2=0,
  ORBSYM=1,1,1,1,1,1,
  ISYM=1
 &END
 1.6645020051487012E+00    1    1    1    1
-1.1104000553210112E-01    2    1    1    1
 1.3428576651576863E-02    2    1    2    1
 3.6802908857560646E-01    2    2    1    1
 6.3383253035322329E-03    2    2    2    1
 4.9052291891827615E-01    2    2    2    2
-1.4144385098090576E-01    3    1    1    1
 1.1589305075962921E-02    3    1    2    1
-1.5637857683070900E-02    3    1    2    2
 2.2846574174901838E-02    3    1    3    1
 1.4739746244672898E-02    3    2    1    1
-3.3523101279125428E-03    3    2    2    1
-4.6983336477482693E-02    3    2    2    2
-1.7225620922432165E-04    3    2    3    1
 1.2177696299622700E-02    3    2    3    2
 3.9975215939837161E-01    3    3    1    1
-1.1078154746955176E-02    3    3    2    1
 2.2287575402953436E-01    3    3    2    2
 1.7075403856390179E-03    3    3    3    1
 7.1956095544808418E-03    3    3    3    2
 3.3946584543852310E-01    3    3    3    3
-6.4328815977015964E-16    4    1    1    1
-2.5453352426727910E-18    4    1    2    1
-3.8675277687431479E-16    4    1    2    2
 3.4648034917783007E-18    4    1    3    1
-6.7755950140635870E-18    4    1    3    2
-3.9593827370413321E-16    4    1    3    3
 1.0054410007619316E-02    4    1    4    1
 5.5516685072383577E-17    4    2    1    1
-2.3729358379812131E-17    4    2    2    1
 3.0602008875944279E-16    4    2    2    2
-2.7789167915006324E-17    4    2    3    1
-4.5811126166267172E-17    4    2    3    2
 6.5904555732199999E-17    4    2    3    3
 7.3495433488197622E-03    4    2    4    1
 2.3045667902666486E-02    4    2    4    2
 3.8610445107599697E-17    4    3    1    1
-2.8936644927034725E-17    4    3    2    1
-1.5339840502292894E-17    4    3    2    2
-5.0833770703906746E-17    4    3    3    1
 1.5142725036995787E-17    4    3    3    2
 7.6958084126154354E-17    4    3    3    3
 1.0232370249255442E-02    4    3    4    1
 1.9026304805909045E-02    4    3    4    2
 4.1399343585820557E-02    4    3    4    3
 3.9694997595105397E-01    4    4    1    1
-4.0601827969445510E-03    4    4    2    1
 2.7029754229054392E-01    4    4    2    2
-4.7107255829206040E-03    4    4    3    1
 5.6667894118021039E-03    4    4    3    2
 2.8254418922579716E-01    4    4    3    3
-4.6426952276143238E-16    4    4    4    1
 2.9667599792460166E-17    4    4    4    2
 3.1312456794083821E-01    4    4    4    4
 4.2887318240522415E-16    5    1    1    1
-1.5633568341037801E-17    5    1    2    1
 1.5778910880002666E-16    5    1    2    2
-2.1836758920092166E-17    5    1    3    1
 1.5027679075321519E-17    5    1    3    2
 1.5713570201103062E-16    5    1    3    3
 1.3796710906743711E-16    5    1    4    4
 1.0054410007619316E-02    5    1    5    1
 1.0233297260489729E-16    5    2    1    1
 2.1937206188438117E-17    5    2    2    1
 2.8206547100233085E-16    5    2    2    2
 1.6971427559679327E-17    5    2    3    1
-8.3388156757656654E-18    5    2    3    2
 1.2299909652126991E-16    5    2    3    3
 7.9384954085955784E-17    5    2    4    4
 7.3495433488197622E-03    5    2    5    1
 2.3045667902666486E-02    5    2    5    2
-2.5005266841379473E-16    5    3    1    1
 2.6917783043027115E-17    5    3    2    1
-1.0816033523365563E-16    5    3    2    2
 2.6867645031596386E-17    5    3    3    1
 3.2951995765677019E-17    5    3    3    2
-1.8155671166780190E-16    5    3    3    3
-1.9550695417773919E-16    5    3    4    4
 1.0232370249255442E-02    5    3    5    1
 1.9026304805909045E-02    5    3    5    2
 4.1399343585820557E-02    5    3    5    3
 1.3877787807814811E-17    5    4    1    1
-1.9515639104739211E-18    5    4    2    1
 1.3877787807815088E-17    5    4    2    2
-3.4694469519536188E-18    5    4    3    1
 9.3241386833752703E-18    5    4    3    2
-1.3735021902580470E-17    5    4    4    1
-4.0280916082093668E-17    5    4    4    2
-6.4901218671968832E-17    5    4    4    3
-4.1633363423443087E-17    5    4    4    4
-2.9662619617177556E-17    5    4    5    1
-1.7347970279268673E-17    5    4    5    2
-1.3596169591717422E-17    5    4    5    3
 1.6875066196915166E-02    5    4    5    4
 3.9694997595105397E-01    5    5    1    1
-4.0601827969445510E-03    5    5    2    1
 2.7029754229054392E-01    5    5    2    2
-4.7107255829206040E-03    5    5    3    1
 5.6667894118021039E-03    5    5    3    2
 2.8254418922579716E-01    5    5    3    3
-4.0494428352707708E-16    5    5    4    1
 6.4363540350997562E-17    5    5    4    2
 2.7984997038804293E-17    5    5    4    3
 2.7937443554700797E-01    5    5    4    4
 1.1049706526227601E-16    5    5    5    1
-1.1768780782315750E-18    5    5    5    2
-3.2530939152167676E-16    5    5    5    3
 5.3776427755281020E-17    5    5    5    4
 3.1312456794083821E-01    5    5    5    5
 5.8284175848169223E-02    6    1    1    1
-9.6432223319153510E-03    6    1    2    1
-6.7703590554204288E-03    6    1    2    2
-3.2963109934061258E-03    6    1    3    1
 1.7543365488634408E-03    6    1    3    2
 1.0619155112081162E-02    6    1    3    3
-1.9936853796855635E-17    6    1    4    1
 3.5028951700072390E-18    6    1    4    2
-8.8965266596111103E-18    6    1    4    3
 5.6644185040383849E-04    6    1    4    4
-8.7778724737317566E-18    6    1    5    1
-2.3118160227020162E-17    6    1    5    2
-3.8157413512863393E-17    6    1    5    3
-1.9498256864342908E-18    6    1    5    4
 5.6644185040383849E-04    6    1    5    5
 9.3663801481760588E-03    6    1    6    1
-4.3195063030890601E-02    6    2    1    1
 4.7036744122837849E-03    6    2    2    1
 1.2862642307351135E-01    6    2    2    2
 7.8718636458212192E-04    6    2    3    1
-3.3462195990697045E-02    6    2    3    2
-1.3391396060037253E-02    6    2    3    3
 1.0777482857355873E-17    6    2    4    1
 1.2748161440656544E-16    6    2    4    2
-8.6767603559797861E-17    6    2    4    3
-1.6316847292059511E-02    6    2    4    4
-1.7932361107038358E-17    6    2    5    1
 1.0012015790083069E-16    6    2    5    2
-3.8603853513765307E-17    6    2    5    3
 1.1397647523351088E-17    6    2    5    4
-1.6316847292059511E-02    6    2    5    5
-8.0021100040152809E-05    6    2    6    1
 1.2518073054133788E-01    6    2    6    2
 1.4213586936154689E-02    6    3    1    1
-3.3024081278972893E-03    6    3    2    1
-5.0107152228534471E-02    6    3    2    2
 4.5984087451664372E-03    6    3    3    1
 8.3899493686840944E-03    6    3    3    2
 3.5526261987817720E-02    6    3    3    3
-3.4991327710421113E-17    6    3    4    1
-1.1439469156192203E-16    6    3    4    2
-1.1139431920799172E-16    6    3    4    3
 1.6120230827955939E-03    6    3    4    4
-2.8143954498323787E-17    6    3    5    1
-8.4104915492561351E-17    6    3    5    2
-1.2514904770399851E-16    6    3    5    3
 2.5179546807308041E-17    6    3    5    4
 1.6120230827955939E-03    6    3    5    5
 4.0723430981853513E-03    6    3    6    1
-3.0451232054321254E-02    6    3    6    2
 2.5264286928900644E-02    6    3    6    3
-7.5812678213883191E-16    6    4    1    1
 4.5230911874925748E-17    6    4    2    1
-2.4701930339587269E-16    6    4    2    2
 1.6132667476208833E-17    6    4    3    1
-7.6506084775008784E-17    6    4    3    2
-5.8612685510271836E-16    6    4    3    3
-6.2176958252599833E-03    6    4    4    1
-1.9610254010027230E-02    6    4    4    2
-1.4041312716838922E-02    6    4    4    3
-5.7947373622019984E-16    6    4    4    4
 1.4424118056179374E-17    6    4    5    4
-5.1989958554754491E-16    6    4    5    5
-1.7838390316306760E-17    6    4    6    1
 2.6502304467779337E-16    6    4    6    2
-1.6950481558326355E-17    6    4    6    3
 2.0045430219483854E-02    6    4    6    4
-3.6306816995923954E-16    6    5    1    1
 2.0062560268126008E-18    6    5    2    1
-1.9795108013015810E-17    6    5    2    2
-2.3823191613735542E-17    6    5    3    1
-7.4946748682562545E-17    6    5    3    2
-3.4526097844454067E-16    6    5    3    3
-2.2478335132730035E-16    6    5    4    4
-6.2176958252599833E-03    6    5    5    1
-1.9610254010027230E-02    6    5    5    2
-1.4041312716838922E-02    6    5    5    3
-2.9787075336327706E-17    6    5    5    4
-1.9593511521494199E-16    6    5    5    5
 7.6520366396850339E-18    6    5    6    1
 1.8353803180397067E-16    6    5    6    2
-3.1719605580845789E-17    6    5    6    3
 1.9679477813500199E-18    6    5    6    4
 2.0045430219483854E-02    6    5    6    5
 3.6436637554856260E-01    6    6    1    1
 3.3296268043427088E-03    6    6    2    1
 4.5647947329368010E-01    6    6    2    2
-1.1261951227253217E-02    6    6    3    1
-4.1573128233165120E-02    6    6    3    2
 2.4111832055583238E-01    6    6    3    3
-3.5170916262258613E-16    6    6    4    1
 3.9860672775464310E-16    6    6    4    2
 5.9792428433195458E-17    6    6    4    3
 2.6894594308532405E-01    6    6    4    4
 1.6145047346351161E-16    6    6    5    1
 3.0681918730878438E-16    6    6    5    2
-1.1748087765082636E-16    6    6    5    3
 2.7431457140168031E-17    6    6    5    4
 2.6894594308532405E-01    6    6    5    5
-3.1204072210775104E-03    6    6    6    1
 1.3511804363404484E-01    6    6    6    2
-4.2766434767955171E-02    6    6    6    3
-3.5487901835861513E-16    6    6    6    4
-7.1824148274872350E-17    6    6    6    5
 4.5585817688651997E-01    6    6    6    6
-4.7743730239177911E+00    1    1    0    0
 1.0470167901918705E-01    2    1    0    0
-1.4994136262351494E+00    2    2    0    0
 1.6936725707297079E-01    3    1    0    0
 2.9093149157204852E-02    3    2    0    0
-1.1316433619313357E+00    3    3    0    0
 1.8835202836991422E-15    4    1    0    0
-5.9940910855443140E-16    4    2    0    0
-8.3092278715634341E-17    4    3    0    0
-1.1387322307647176E+00    4    4    0    0
-6.9727859332325082E-16    5    1    0    0
-5.3017742027063859E-16    5    2    0    0
 7.7354119650173816E-16    5    3    0    0
 1.7554982196726433E-17    5    4    0    0
-1.1387322307647176E+00    5    5    0    0
-4.0039782861375696E-02    6    1    0    0
-5.1879518117733350E-02    6    2    0    0
 3.5028623811095644E-02    6    3    0    0
 2.1303881327787352E-15    6    4    0    0
 8.8375325003148740E-16    6    5    0    0
-9.5803167216942064E-01    6    6    0    0
 9.9531763435599996E-01    0    0    0    0
