 &FCI NORB=   8,NELEC= 8,MS2=0,
  ORBSYM=1,1,1,1,1,1,1,1,
  ISYM=1,
 &END
 2.885872439643773    1    1    1    1
 -0.2505946034815988    1    1    2    1
 0.6008649932608625    1    1    2    2
 1.309499383927992e-15    1    1    3    1
 0.5431012966104436    1    1    3    3
 -8.568915825469745e-08    1    1    4    1
 -1.222658309318891e-08    1    1    4    2
 0.5431012364660358    1    1    4    4
 0.7419370001826255    1    1    5    5
 -0.2768877053433903    1    1    6    1
 0.215588408158452    1    1    6    2
 -1.302083441068191e-14    1    1    6    3
 9.617531265895818e-07    1    1    6    4
 0.617524002672765    1    1    6    6
 1.19296259140086e-06    1    1    7    1
 -1.000159650862975e-06    1    1    7    2
 -2.667762904681736e-09    1    1    7    3
 0.2035931511500463    1    1    7    4
 2.236463252612564e-07    1    1    7    6
 0.6817863344015808    1    1    7    7
 0.2035931153060802    1    1    8    3
 2.667762535185636e-09    1    1    8    4
 0.6817863310616114    1    1    8    8
 -0.250594603481599    2    1    1    1
 0.03398782149673659    2    1    2    1
 -0.00855399593326114    2    1    2    2
 -0.003656740753385496    2    1    3    3
 8.364174153545954e-09    2    1    4    1
 -7.243120201815174e-09    2    1    4    2
 -0.003656743745705427    2    1    4    4
 -0.009802997405129389    2    1    5    5
 0.038516802249326    2    1    6    1
 -0.009473380575598978    2    1    6    2
 -2.757017801806593e-08    2    1    6    4
 -0.01147166657986735    2    1    6    6
 -1.720166129072196e-07    2    1    7    1
 3.978265411585039e-08    2    1    7    2
 7.158059052176508e-11    2    1    7    3
 -0.005462748413268905    2    1    7    4
 2.752050902053368e-09    2    1    7    6
 -0.009830874230348587    2    1    7    7
 -0.005462751575636361    2    1    8    3
 -7.158063662746246e-11    2    1    8    4
 -0.009830874235882046    2    1    8    8
 0.6008649932608625    2    2    1    1
 -0.008553995933261128    2    2    2    1
 0.4427455761842879    2    2    2    2
 1.804112415015879e-15    2    2    3    2
 0.437845512029406    2    2    3    3
 -1.486499987099661e-08    2    2    4    1
 -1.158696648212443e-07    2    2    4    2
 1.706967900361178e-15    2    2    4    3
 0.4378453869829156    2    2    4    4
 0.462869579503667    2    2    5    5
 -0.008738497054256215    2    2    6    1
 0.04243264270473726    2    2    6    2
 -3.615163723935666e-15    2    2    6    3
 2.596254400147324e-07    2    2    6    4
 0.4383641013013591    2    2    6    6
 1.910571664293309e-08    2    2    7    1
 -1.977798448522805e-07    2    2    7    2
 -6.157832403708152e-10    2    2    7    3
 0.04699415003091144    2    2    7    4
 -2.788649450247149e-08    2    2    7    6
 0.4572792141443756    2    2    7    7
 0.04699404069097696    2    2    8    3
 6.157817727947545e-10    2    2    8    4
 0.4572792609884542    2    2    8    8
 1.316982920016984e-15    3    1    1    1
 0.007474594718429727    3    1    3    1
 0.01284990780508374    3    1    3    2
 1.767792344800623e-10    3    1    3    3
 -0.004084305245176309    3    1    4    3
 -1.767792935690807e-10    3    1    4    4
 0.003312072277051121    3    1    6    3
 -1.405993377279202e-15    3    1    6    6
 -1.717309493699424e-10    3    1    7    1
 -1.016305506548396e-10    3    1    7    2
 0.003229158387026622    3    1    7    3
 9.745363039768626e-11    3    1    7    4
 -1.705423846847659e-10    3    1    7    6
 1.479452422115807e-11    3    1    7    7
 0.01310582949056686    3    1    8    1
 0.007756039235437579    3    1    8    2
 -9.745373215006015e-11    3    1    8    3
 0.003229176787461637    3    1    8    4
 0.01301513143892001    3    1    8    6
 0.0008662621072355487    3    1    8    7
 -1.479295245326862e-11    3    1    8    8
 1.772887392448297e-15    3    2    2    2
 0.01284990780508375    3    2    3    1
 0.1207362065036845    3    2    3    2
 2.748137405139683e-09    3    2    3    3
 1.240327285323417e-15    3    2    4    2
 -0.06349295720993479    3    2    4    3
 -2.748138201377759e-09    3    2    4    4
 -1.079811153686938e-15    3    2    6    1
 -0.04324768872890671    3    2    6    3
 6.234596172660645e-15    3    2    6    4
 -1.211530875622202e-14    3    2    6    6
 -2.558507095963038e-10    3    2    7    1
 3.592113065331581e-11    3    2    7    2
 0.05101028878336435    3    2    7    3
 1.539441038186928e-09    3    2    7    4
 -1.423037243597491e-09    3    2    7    6
 -4.819256001209471e-10    3    2    7    7
 0.01952552068678413    3    2    8    1
 -0.002741426122683355    3    2    8    2
 -1.539441553399801e-09    3    2    8    3
 0.05101010986804831    3    2    8    4
 0.1086003493569573    3    2    8    6
 -0.02822402839137306    3    2    8    7
 4.819386209553578e-10    3    2    8    8
 0.5431012966104434    3    3    1    1
 -0.003656740753385428    3    3    2    1
 0.4378455120294059    3    3    2    2
 1.767792368653071e-10    3    3    3    1
 2.748137412078577e-09    3    3    3    2
 0.4905124605158808    3    3    3    3
 -0.004084312178270882    3    3    4    1
 -0.06349299035576955    3    3    4    2
 2.581268532253489e-15    3    3    4    3
 0.3919009833903837    3    3    4    4
 0.4331511739849809    3    3    5    5
 -0.003506514741495167    3    3    6    1
 0.02135559165735068    3    3    6    2
 -1.760851783827455e-09    3    3    6    3
 0.04068296375539224    3    3    6    4
 0.4371061237241277    3    3    6    6
 -0.005355703428214626    3    3    7    1
 0.02441947500448238    3    3    7    2
 -7.977632443534333e-11    3    3    7    3
 0.05338880260968507    3    3    7    4
 -0.05779185160978591    3    3    7    6
 0.4222954975769656    3    3    7    7
 1.616306782425275e-10    3    3    8    1
 -7.369626714437416e-10    3    3    8    2
 0.006088711866650699    3    3    8    3
 6.99576091500731e-10    3    3    8    4
 1.744101030265455e-09    3    3    8    6
 -8.608482260363814e-10    3    3    8    7
 0.4879910039492059    3    3    8    8
 -8.568915822053068e-08    4    1    1    1
 8.364174145619843e-09    4    1    2    1
 -1.486499987002083e-08    4    1    2    2
 -0.004084312178270883    4    1    3    3
 0.007474593229381657    4    1    4    1
 0.01284990256982012    4    1    4    2
 -1.767793984114308e-10    4    1    4    3
 0.004084315786589669    4    1    4    4
 -3.066141465615617e-09    4    1    5    5
 6.760068835703874e-08    4    1    6    1
 2.948831143964646e-08    4    1    6    2
 0.00331204426952211    4    1    6    4
 1.054808934262356e-07    4    1    6    6
 0.01310582880284192    4    1    7    1
 0.007756042874426749    4    1    7    2
 9.745362134459812e-11    4    1    7    3
 -0.003229183403604272    4    1    7    4
 0.01301512327652033    4    1    7    6
 -0.0008664318258174901    4    1    7    7
 1.717309623905329e-10    4    1    8    1
 1.016305008899598e-10    4    1    8    2
 0.003229172732206766    4    1    8    3
 9.745373458951503e-11    4    1    8    4
 1.70542523462644e-10    4    1    8    6
 1.479230724455577e-11    4    1    8    7
 0.0008663145891723227    4    1    8    8
 -1.2226583084456e-08    4    2    1    1
 -7.243120211085103e-09    4    2    2    1
 -1.158696648056318e-07    4    2    2    2
 1.23338839141951e-15    4    2    3    2
 -0.06349299035576955    4    2    3    3
 0.01284990256982012    4    2    4    1
 0.1207361175960395    4    2    4    2
 -2.748138702712843e-09    4    2    4    3
 0.06349303900167501    4    2    4    4
 -8.873810804221893e-09    4    2    5    5
 8.045403540333563e-08    4    2    6    1
 1.187179611387978e-08    4    2    6    2
 6.22071838485283e-15    4    2    6    3
 -0.04324810464226073    4    2    6    4
 9.09208603662448e-07    4    2    6    6
 0.01952551763965547    4    2    7    1
 -0.002741360116389463    4    2    7    2
 1.539441020839694e-09    4    2    7    3
 -0.0510098946503148    4    2    7    4
 0.1086005561822059    4    2    7    6
 0.02822260016304924    4    2    7    7
 2.558507589817127e-10    4    2    8    1
 -3.592206913871632e-11    4    2    8    2
 0.05101010391011399    4    2    8    3
 1.53944137819273e-09    4    2    8    4
 1.423033670067131e-09    4    2    8    6
 -4.819442067649504e-10    4    2    8    7
 -0.02822355941824937    4    2    8    8
 1.741662369880714e-15    4    3    2    2
 -0.004084305245176307    4    3    3    1
 -0.06349295720993479    4    3    3    2
 2.581268532253489e-15    4    3    3    3
 -1.767793981945903e-10    4    3    4    1
 -2.74813870097812e-09    4    3    4    2
 0.04930565142213954    4    3    4    3
 -3.285566263500073e-15    4    3    4    4
 2.865763182313685e-15    4    3    6    2
 0.04068259840035819    4    3    6    3
 1.760853350282754e-09    4    3    6    4
 -1.447106323659852e-14    4    3    6    6
 -1.616311378900386e-10    4    3    7    1
 7.36962011381459e-10    4    3    7    2
 -0.02365026807610607    4    3    7    3
 3.098907285295494e-10    4    3    7    4
 -1.744111077783828e-09    4    3    7    6
 -8.60826233212153e-10    4    3    7    7
 -0.005355707506969795    4    3    8    1
 0.02441960034267945    4    3    8    2
 -3.098978122728635e-10    4    3    8    3
 -0.0236500898525238    4    3    8    4
 -0.05779157924601717    4    3    8    6
 0.03284823396007458    4    3    8    7
 8.60841689598324e-10    4    3    8    8
 0.5431012364660363    4    4    1    1
 -0.003656743745705401    4    4    2    1
 0.4378453869829155    4    4    2    2
 -1.767792954122244e-10    4    4    3    1
 -2.748138203112482e-09    4    4    3    2
 0.3919009833903836    4    4    3    3
 0.004084315786589666    4    4    4    1
 0.06349303900167499    4    4    4    2
 -3.289035710452026e-15    4    4    4    3
 0.4905125105642152    4    4    4    4
 0.4331511381239505    4    4    5    5
 -0.003506468718845008    4    4    6    1
 0.0213554019405418    4    4    6    2
 1.760848376830548e-09    4    4    6    3
 -0.04068271101952095    4    4    6    4
 0.4371070897334383    4    4    6    6
 0.005355742672269706    4    4    7    1
 -0.02441968094848624    4    4    7    2
 -6.995831275391495e-10    4    4    7    3
 0.006088856220968246    4    4    7    4
 0.05779204731270476    4    4    7    6
 0.4879905021119901    4    4    7    7
 -1.616307065402042e-10    4    4    8    1
 7.369626887909764e-10    4    4    8    2
 0.0533889733668623    4    4    8    3
 7.978407171038704e-11    4    4    8    4
 -1.744101182921121e-09    4    4    8    6
 8.608482676697449e-10    4    4    8    7
 0.4222949589965561    4    4    8    8
 0.0219119901739971    5    1    5    1
 0.02131300339593315    5    1    5    2
 7.874760661694818e-09    5    1    5    4
 0.02372430365489375    5    1    6    5
 -1.031805793045432e-07    5    1    7    5
 0.02131300339593315    5    2    5    1
 0.06928141719097859    5    2    5    2
 1.750534678237464e-08    5    2    5    4
 0.06566544782371983    5    2    6    5
 -2.914748359582331e-07    5    2    7    5
 0.01761911615296837    5    3    5    3
 -1.313185671314443e-15    5    3    6    5
 -2.131530134688586e-10    5    3    7    5
 0.01626699652681543    5    3    8    5
 7.874760661908271e-09    5    4    5    1
 1.750534678367568e-08    5    4    5    2
 0.01761911298668863    5    4    5    4
 9.462668368754451e-08    5    4    6    5
 0.01626699768542145    5    4    7    5
 2.131530039278795e-10    5    4    8    5
 0.7419370001826256    5    5    1    1
 -0.009802997405129309    5    5    2    1
 0.462869579503667    5    5    2    2
 0.4331511739849808    5    5    3    3
 -3.066141466049298e-09    5    5    4    1
 -8.873810790344105e-09    5    5    4    2
 0.4331511381239505    5    5    4    4
 0.5867727439789319    5    5    5    5
 -0.00769846202532828    5    5    6    1
 0.1078172952836542    5    5    6    2
 -6.418476861114186e-15    5    5    6    3
 4.725037755590883e-07    5    5    6    4
 0.4593833232162888    5    5    6    6
 3.200026491527582e-08    5    5    7    1
 -4.948224276990487e-07    5    5    7    2
 -1.280041624779349e-09    5    5    7    3
 0.09768773464986232    5    5    7    4
 4.825789111373435e-08    5    5    7    6
 0.4767268486444175    5    5    7    7
 0.09768770749957068    5    5    8    3
 1.280041357631934e-09    5    5    8    4
 0.4767268554894359    5    5    8    8
 -0.2768877053433904    6    1    1    1
 0.03851680224932599    6    1    2    1
 -0.008738497054256255    6    1    2    2
 -1.077561434179031e-15    6    1    3    2
 -0.003506514741495283    6    1    3    3
 6.760068836909583e-08    6    1    4    1
 8.045403540805191e-08    6    1    4    2
 -0.003506468718845072    6    1    4    4
 -0.007698462025328377    6    1    5    5
 0.04378701810372509    6    1    6    1
 -0.009467007597906356    6    1    6    2
 5.171934667509833e-10    6    1    6    4
 -0.0114633647476185    6    1    6    6
 -9.277087864673952e-08    6    1    7    1
 9.723397860187017e-08    6    1    7    2
 6.606969900108291e-11    6    1    7    3
 -0.005042172571767005    6    1    7    4
 9.76088503226529e-08    6    1    7    6
 -0.0092707583932563    6    1    7    7
 -0.005042127587287211    6    1    8    3
 -6.606894995290699e-11    6    1    8    4
 -0.009270737731959777    6    1    8    8
 0.2155884081584521    6    2    1    1
 -0.009473380575599027    6    2    2    1
 0.04243264270473728    6    2    2    2
 0.02135559165735062    6    2    3    3
 2.948831144555875e-08    6    2    4    1
 1.187179617969086e-08    6    2    4    2
 2.867714746224159e-15    6    2    4    3
 0.02135540194054172    6    2    4    4
 0.107817295283654    6    2    5    5
 -0.009467007597906437    6    2    6    1
 0.07041436123979071    6    2    6    2
 -6.609296443471635e-15    6    2    6    3
 4.937225539236589e-07    6    2    6    4
 0.02737358772151331    6    2    6    6
 9.466183875933706e-08    6    2    7    1
 -1.331937086040957e-07    6    2    7    2
 -8.859655630660823e-10    6    2    7    3
 0.06761338784822354    6    2    7    4
 5.494331898996119e-08    6    2    7    6
 0.0456614797777442    6    2    7    7
 0.06761332704570971    6    2    8    3
 8.859645031500385e-10    6    2    8    4
 0.04566171962209002    6    2    8    8
 -1.303678869975992e-14    6    3    1    1
 -3.582203977892107e-15    6    3    2    2
 0.003312072277051121    6    3    3    1
 -0.04324768872890664    6    3    3    2
 -1.760851745663539e-09    6    3    3    3
 6.229392002232714e-15    6    3    4    2
 0.04068259840035818    6    3    4    3
 1.760848404586124e-09    6    3    4    4
 -6.401129626354418e-15    6    3    5    5
 -6.614500613899565e-15    6    3    6    2
 0.05945074643173516    6    3    6    3
 -7.86697096355482e-15    6    3    6    4
 3.524958103184872e-15    6    3    6    6
 -7.890660753918574e-11    6    3    7    1
 -5.98576393312511e-10    6    3    7    2
 -0.0303887399288535    6    3    7    3
 -9.171078662120746e-10    6    3    7    4
 6.068656167868003e-10    6    3    7    6
 6.350154724971135e-10    6    3    7    7
 0.006021893801855345    6    3    8    1
 0.04568092179366449    6    3    8    2
 9.170985706963286e-10    6    3    8    3
 -0.03038848524635313    6    3    8    4
 -0.04631270420366784    6    3    8    6
 0.03718878854055605    6    3    8    7
 -6.350279330158415e-10    6    3    8    8
 9.617531264119935e-07    6    4    1    1
 -2.757017796814519e-08    6    4    2    1
 2.596254400364165e-07    6    4    2    2
 6.251943407420413e-15    6    4    3    2
 0.0406829637553922    6    4    3    3
 0.003312044269522111    6    4    4    1
 -0.04324810464226065    6    4    4    2
 1.76085334854803e-09    6    4    4    3
 -0.04068271101952096    6    4    4    4
 4.725037754081673e-07    6    4    5    5
 5.1719352872669e-10    6    4    6    1
 4.937225538646783e-07    6    4    6    2
 -7.870440410506774e-15    6    4    6    3
 0.05945127324281606    6    4    6    4
 -2.621023723614613e-07    6    4    6    6
 0.006021847395453992    6    4    7    1
 0.04568097848955616    6    4    7    2
 -9.171078375891373e-10    6    4    7    3
 0.03038888763910752    6    4    7    4
 -0.04631348354443215    6    4    7    6
 -0.03718802732760431    6    4    7    7
 7.890738588792537e-11    6    4    8    1
 5.985753715603837e-10    6    4    8    2
 -0.03038845537065924    6    4    8    3
 -9.170987398318675e-10    6    4    8    4
 -6.068525751357079e-10    6    4    8    6
 6.350255789960846e-10    6    4    8    7
 0.0371889465448763    6    4    8    8
 0.02372430365489375    6    5    5    1
 0.06566544782371983    6    5    5    2
 -1.313185671314443e-15    6    5    5    3
 9.462668367106464e-08    6    5    5    4
 0.06815328103583752    6    5    6    5
 -2.095076133412643e-07    6    5    7    5
 0.6175240026727643    6    6    1    1
 -0.01147166657986728    6    6    2    1
 0.4383641013013591    6    6    2    2
 -1.409462824231156e-15    6    6    3    1
 -1.217081990745328e-14    6    6    3    2
 0.4371061237241274    6    6    3    3
 1.054808934400049e-07    6    6    4    1
 9.092086036208147e-07    6    6    4    2
 -1.446065489574266e-14    6    6    4    3
 0.4371070897334379    6    6    4    4
 0.4593833232162882    6    6    5    5
 -0.01146336474761833    6    6    6    1
 0.02737358772151318    6    6    6    2
 3.469446951953614e-15    6    6    6    3
 -2.621023723059501e-07    6    6    6    4
 0.4546127474568775    6    6    6    6
 2.227663392147142e-07    6    6    7    1
 -2.028762585044863e-07    6    6    7    2
 -3.602338011221562e-10    6    6    7    3
 0.02749175900235704    6    6    7    4
 9.66773658100939e-07    6    6    7    6
 0.4638456709722711    6    6    7    7
 0.02749263793977486    6    6    8    3
 3.602487440301783e-10    6    6    8    4
 0.4638451680072685    6    6    8    8
 1.192962591339892e-06    7    1    1    1
 -1.720166128932012e-07    7    1    2    1
 1.910571664613149e-08    7    1    2    2
 -1.717309490074123e-10    7    1    3    1
 -2.558507080242106e-10    7    1    3    2
 -0.005355703428214625    7    1    3    3
 0.01310582880284192    7    1    4    1
 0.01952551763965548    7    1    4    2
 -1.616311377274082e-10    7    1    4    3
 0.005355742672269696    7    1    4    4
 3.200026491345979e-08    7    1    5    5
 -9.277087862487125e-08    7    1    6    1
 9.466183876870185e-08    7    1    6    2
 -7.890660401552868e-11    7    1    6    3
 0.006021847395453975    7    1    6    4
 2.227663391908075e-07    7    1    6    6
 0.02321654759268586    7    1    7    1
 0.01302582858072183    7    1    7    2
 9.153751498111595e-11    7    1    7    3
 -0.005360674893443947    7    1    7    4
 0.02067405857556876    7    1    7    6
 -0.00245320141617261    7    1    7    7
 0.005360702844778411    7    1    8    3
 9.153790149919044e-11    7    1    8    4
 9.744444183848455e-12    7    1    8    7
 0.002453104881959082    7    1    8    8
 -1.000159650865197e-06    7    2    1    1
 3.978265412190159e-08    7    2    2    1
 -1.9777984485575e-07    7    2    2    2
 -1.01630551129178e-10    7    2    3    1
 3.592113585748624e-11    7    2    3    2
 0.02441947500448233    7    2    3    3
 0.007756042874426756    7    2    4    1
 -0.002741360116389451    7    2    4    2
 7.369620169108901e-10    7    2    4    3
 -0.02441968094848628    7    2    4    4
 -4.948224276192514e-07    7    2    5    5
 9.723397860410634e-08    7    2    6    1
 -1.331937085676665e-07    7    2    6    2
 -5.985763846388936e-10    7    2    6    3
 0.04568097848955621    7    2    6    4
 -2.028762583275445e-07    7    2    6    6
 0.01302582858072182    7    2    7    1
 0.04857800912948742    7    2    7    2
 -1.608860648871779e-10    7    2    7    3
 0.009421791830493851    7    2    7    4
 -0.008641746821782516    7    2    7    6
 -0.0309852504152207    7    2    7    7
 -0.009422587341917516    7    2    8    3
 -1.608964025380522e-10    7    2    8    4
 1.230834644275203e-10    7    2    8    7
 0.03098490469971343    7    2    8    8
 -2.667762917037406e-09    7    3    1    1
 7.158058472128345e-11    7    3    2    1
 -6.157832455749856e-10    7    3    2    2
 0.003229158387026626    7    3    3    1
 0.05101028878336431    7    3    3    2
 -7.977634525202504e-11    7    3    3    3
 9.745362131749306e-11    7    3    4    1
 1.539441018237608e-09    7    3    4    2
 -0.02365026807610605    7    3    4    3
 -6.995831362127669e-10    7    3    4    4
 -1.280041628248796e-09    7    3    5    5
 6.606969504374498e-11    7    3    6    1
 -8.859655578619119e-10    7    3    6    2
 -0.0303887399288535    7    3    6    3
 -9.171078393238608e-10    7    3    6    4
 -3.602337941832623e-10    7    3    6    6
 9.153751698688997e-11    7    3    7    1
 -1.608860631524545e-10    7    3    7    2
 0.03591647364088903    7    3    7    3
 -9.039614499647963e-10    7    3    7    4
 9.016174473686078e-10    7    3    7    6
 -5.669179067163688e-10    7    3    7    7
 0.005360652155751565    7    3    8    1
 -0.009422498362905051    7    3    8    2
 -9.039729537835273e-10    7    3    8    3
 0.03201691937278552    7    3    8    4
 0.05280141431308802    7    3    8    6
 -0.01109587659462343    7    3    8    7
 -8.576824528372384e-10    7    3    8    8
 0.2035931511500463    7    4    1    1
 -0.005462748413268849    7    4    2    1
 0.04699415003091144    7    4    2    2
 9.745362760586566e-11    7    4    3    1
 1.539441031248034e-09    7    4    3    2
 0.05338880260968509    7    4    3    3
 -0.003229183403604285    7    4    4    1
 -0.05100989465031477    7    4    4    2
 3.09890732866358e-10    7    4    4    3
 0.006088856220968234    7    4    4    4
 0.09768773464986232    7    4    5    5
 -0.005042172571766922    7    4    6    1
 0.0676133878482237    7    4    6    2
 -9.171078974370972e-10    7    4    6    3
 0.03038888763910764    7    4    6    4
 0.02749175900235752    7    4    6    6
 -0.005360674893443919    7    4    7    1
 0.009421791830493798    7    4    7    2
 -9.039614560363285e-10    7    4    7    3
 0.1049033234115907    7    4    7    4
 -0.05280100202768551    7    4    7    6
 0.04326476331602425    7    4    7    7
 9.15372272474119e-11    7    4    8    1
 -1.608952016757259e-10    7    4    8    2
 0.0369706911419247    7    4    8    3
 9.039729444593886e-10    7    4    8    4
 9.016227842453817e-10    7    4    8    6
 -1.453951989187352e-10    7    4    8    7
 0.06545500534034067    7    4    8    8
 -1.031805793044856e-07    7    5    5    1
 -2.914748359624615e-07    7    5    5    2
 -2.131530130351778e-10    7    5    5    3
 0.01626699768542144    7    5    5    4
 -2.095076133551421e-07    7    5    6    5
 0.02014400134859773    7    5    7    5
 2.236463254652406e-07    7    6    1    1
 2.752050836133876e-09    7    6    2    1
 -2.788649442787838e-08    7    6    2    2
 -1.705423843052951e-10    7    6    3    1
 -1.423037221046086e-09    7    6    3    2
 -0.05779185160978585    7    6    3    3
 0.01301512327652036    7    6    4    1
 0.1086005561822058    7    6    4    2
 -1.744111098600509e-09    7    6    4    3
 0.05779204731270483    7    6    4    4
 4.825789130802338e-08    7    6    5    5
 9.760885020612827e-08    7    6    6    1
 5.494331907496264e-08    7    6    6    2
 6.068656514812698e-10    7    6    6    3
 -0.04631348354443205    7    6    6    4
 9.667736581217556e-07    7    6    6    6
 0.02067405857556874    7    6    7    1
 -0.008641746821782573    7    6    7    2
 9.016174460675652e-10    7    6    7    3
 -0.05280100202768544    7    6    7    4
 0.1111424447868589    7    6    7    6
 0.02938938011646844    7    6    7    7
 0.05280143252065627    7    6    8    3
 9.016230366476474e-10    7    6    8    4
 -1.167472819807447e-10    7    6    8    7
 -0.02939011930180432    7    6    8    8
 0.6817863344015809    7    7    1    1
 -0.009830874230348431    7    7    2    1
 0.4572792141443754    7    7    2    2
 1.479452476325915e-11    7    7    3    1
 -4.819256660404392e-10    7    7    3    2
 0.4222954975769655    7    7    3    3
 -0.0008664318258175432    7    7    4    1
 0.02822260016304919    7    7    4    2
 -8.608262019871304e-10    7    7    4    3
 0.4879905021119904    7    7    4    4
 0.4767268486444175    7    7    5    5
 -0.00927075839325596    7    7    6    1
 0.0456614797777443    7    7    6    2
 6.350153944345571e-10    7    7    6    3
 -0.03718802732760419    7    7    6    4
 0.4638456709722718    7    7    6    6
 -0.002453201416172579    7    7    7    1
 -0.03098525041522102    7    7    7    2
 -5.669179049816453e-10    7    7    7    3
 0.04326476331602423    7    7    7    4
 0.02938938011646805    7    7    7    6
 0.5275422035780376    7    7    7    7
 9.744417837735664e-12    7    7    8    1
 1.230836439714e-10    7    7    8    2
 0.06545467220500588    7    7    8    3
 8.576771619306367e-10    7    7    8    4
 -1.167472715724038e-10    7    7    8    6
 1.720845688168993e-15    7    7    8    7
 0.458572239014637    7    7    8    8
 0.01310582949056686    8    1    3    1
 0.01952552068678412    8    1    3    2
 1.616306801940914e-10    8    1    3    3
 1.717309618009979e-10    8    1    4    1
 2.558507594153936e-10    8    1    4    2
 -0.005355707506969792    8    1    4    3
 -1.616307101180714e-10    8    1    4    4
 0.006021893801855357    8    1    6    3
 7.890738371952102e-11    8    1    6    4
 0.005360652155751562    8    1    7    3
 9.153721801814091e-11    8    1    7    4
 9.744413175666322e-12    8    1    7    7
 0.02321654569212701    8    1    8    1
 0.013025821544563    8    1    8    2
 -9.153766980518618e-11    8    1    8    3
 0.005360684693389956    8    1    8    4
 0.02067407664130907    8    1    8    6
 0.002452977658369744    8    1    8    7
 -9.744385853771576e-12    8    1    8    8
 0.007756039235437579    8    2    3    1
 -0.002741426122683398    8    2    3    2
 -7.369626280756547e-10    8    2    3    3
 1.016305021774499e-10    8    2    4    1
 -3.592206306718415e-11    8    2    4    2
 0.02441960034267945    8    2    4    3
 7.369626870562529e-10    8    2    4    4
 0.04568092179366441    8    2    6    3
 5.985753646214897e-10    8    2    6    4
 -0.009422498362905082    8    2    7    3
 -1.608952368038763e-10    8    2    7    4
 1.230835650414819e-10    8    2    7    7
 0.01302582154456299    8    2    8    1
 0.04857802213371804    8    2    8    2
 1.608927609197952e-10    8    2    8    3
 -0.009422286290220173    8    2    8    4
 -0.008641527567750294    8    2    8    6
 0.03098516675257009    8    2    8    7
 -1.230835156018628e-10    8    2    8    8
 0.2035931153060804    8    3    1    1
 -0.005462751575636357    8    3    2    1
 0.04699404069097707    8    3    2    2
 -9.745373426425438e-11    8    3    3    1
 -1.539441546460907e-09    8    3    3    2
 0.006088711866650776    8    3    3    3
 0.00322917273220676    8    3    4    1
 0.05101010391011397    8    3    4    2
 -3.0989781053814e-10    8    3    4    3
 0.05338897336686225    8    3    4    4
 0.09768770749957068    8    3    5    5
 -0.005042127587287223    8    3    6    1
 0.06761332704570974    8    3    6    2
 9.170985602879878e-10    8    3    6    3
 -0.03038845537065917    8    3    6    4
 0.02749263793977465    8    3    6    6
 0.005360702844778414    8    3    7    1
 -0.009422587341917497    8    3    7    2
 -9.039729555182507e-10    8    3    7    3
 0.03697069114192472    8    3    7    4
 0.05280143252065619    8    3    7    6
 0.06545467220500592    8    3    7    7
 -9.153767164832988e-11    8    3    8    1
 1.608927643892422e-10    8    3    8    2
 0.104903578308026    8    3    8    3
 9.039692119849896e-10    8    3    8    4
 -9.016203686429414e-10    8    3    8    6
 1.453925764505204e-10    8    3    8    7
 0.04326414358754157    8    3    8    8
 2.667762551340248e-09    8    4    1    1
 -7.158063519089458e-11    8    4    2    1
 6.157817710600311e-10    8    4    2    2
 0.003229176787461637    8    4    3    1
 0.05101010986804835    8    4    3    2
 6.995760672146023e-10    8    4    3    3
 9.745373315294716e-11    8    4    4    1
 1.539441367784389e-09    8    4    4    2
 -0.02365008985252379    8    4    4    3
 7.978405436315228e-11    8    4    4    4
 1.280041364570828e-09    8    4    5    5
 -6.606894501978711e-11    8    4    6    1
 8.859644944764211e-10    8    4    6    2
 -0.03038848524635305    8    4    6    3
 -9.170987354950588e-10    8    4    6    4
 3.602487370912844e-10    8    4    6    6
 9.153790255628756e-11    8    4    7    1
 -1.608963916960304e-10    8    4    7    2
 0.03201691937278552    8    4    7    3
 9.03972958120336e-10    8    4    7    4
 9.016230158309657e-10    8    4    7    6
 8.576771584611897e-10    8    4    7    7
 0.005360684693389958    8    4    8    1
 -0.00942228629022018    8    4    8    2
 9.039691946377548e-10    8    4    8    3
 0.0359162089936258    8    4    8    4
 0.05280121865932673    8    4    8    6
 -0.01109570617949226    8    4    8    7
 5.669076527659023e-10    8    4    8    8
 0.01626699652681544    8    5    5    3
 2.131530028436773e-10    8    5    5    4
 0.02014399892747861    8    5    8    5
 0.01301513143892001    8    6    3    1
 0.1086003493569572    8    6    3    2
 1.744100974754303e-09    8    6    3    3
 1.705425212400295e-10    8    6    4    1
 1.423033650985173e-09    8    6    4    2
 -0.0577915792460171    8    6    4    3
 -1.744101269657294e-09    8    6    4    4
 -0.0463127042036676    8    6    6    3
 -6.068525716662609e-10    8    6    6    4
 0.05280141431308791    8    6    7    3
 9.016227677655086e-10    8    6    7    4
 -1.167473097363203e-10    8    6    7    7
 0.02067407664130909    8    6    8    1
 -0.008641527567750367    8    6    8    2
 -9.016203998679639e-10    8    6    8    3