 &FCI NORB=   6,NELEC= 6,MS2=0,
  ORBSYM=1,1,1,1,1,1,
  ISYM=1,
 &END
 2.890694185551886    1    1    1    1
 -0.2285478644008276    1    1    2    1
 0.5953083364634656    1    1    2    2
 -0.2162016548582802    1    1    3    1
 0.09104871057910127    1    1    3    2
 0.6900652953132707    1    1    3    3
 0.7419889025330183    1    1    4    4
 0.7419889025330181    1    1    5    5
 0.1413257075902383    1    1    6    1
 -0.1861902551212619    1    1    6    2
 0.09008046930667073    1    1    6    3
 0.6699597694264849    1    1    6    6
 -0.2285478644008276    2    1    1    1
 0.02992401570960048    2    1    2    1
 -0.001146336251477235    2    1    2    2
 0.02347037645652453    2    1    3    1
 -0.008237570230799412    2    1    3    2
 -0.01537296998854835    2    1    3    3
 -0.008814449236465278    2    1    4    4
 -0.008814449236465275    2    1    5    5
 -0.02314657520492044    2    1    6    1
 0.003050017645768165    2    1    6    2
 -0.00419211917379873    2    1    6    3
 -0.004379253657977653    2    1    6    6
 0.5953083364634657    2    2    1    1
 -0.001146336251477227    2    2    2    1
 0.5804858409021905    2    2    2    2
 -0.01900821896163675    2    2    3    1
 -0.07241056645830383    2    2    3    2
 0.4170856180274074    2    2    3    3
 0.4593408467391383    2    2    4    4
 0.4593408467391382    2    2    5    5
 -0.01238748160972113    2    2    6    1
 0.0002084163025978247    2    2    6    2
 -0.05254431697407079    2    2    6    3
 0.5754116421934867    2    2    6    6
 -0.2162016548582803    3    1    1    1
 0.02347037645652455    3    1    2    1
 -0.01900821896163674    3    1    2    2
 0.03397697977407958    3    1    3    1
 0.003163633505588129    3    1    3    2
 0.00404893468739087    3    1    3    3
 -0.007412212106220699    3    1    4    4
 -0.007412212106220697    3    1    5    5
 -0.005247409917599474    3    1    6    1
 0.01158307545322849    3    1    6    2
 0.006990498122004285    3    1    6    3
 -0.01879243966504147    3    1    6    6
 0.09104871057910127    3    2    1    1
 -0.008237570230799426    3    2    2    1
 -0.07241056645830381    3    2    2    2
 0.003163633505588093    3    2    3    1
 0.0676156185213167    3    2    3    2
 0.05019628841726888    3    2    3    3
 0.04621563081453394    3    2    4    4
 0.04621563081453393    3    2    5    5
 0.01250097777451356    3    2    6    1
 -0.05223141555214424    3    2    6    2
 0.05747267715242108    3    2    6    3
 -0.06327529964411363    3    2    6    6
 0.6900652953132709    3    3    1    1
 -0.01537296998854832    3    3    2    1
 0.4170856180274075    3    3    2    2
 0.004048934687390883    3    3    3    1
 0.05019628841726886    3    3    3    2
 0.5635811972005504    3    3    3    3
 0.5041862576414032    3    3    4    4
 0.5041862576414031    3    3    5    5
 0.0231276130620684    3    3    6    1
 -0.03192699042073559    3    3    6    2
 0.07541684244416474    3    3    6    3
 0.4565326809201556    3    3    6    6
 0.02169507828733871    4    1    4    1
 0.01921155457995589    4    1    4    2
 0.01851865219375422    4    1    4    3
 -0.01161252859365546    4    1    6    4
 0.01921155457995589    4    2    4    1
 0.06039821130266281    4    2    4    2
 0.04342107961102947    4    2    4    3
 -0.03633847993724627    4    2    6    4
 0.01851865219375421    4    3    4    1
 0.04342107961102945    4    3    4    2
 0.06291076116021634    4    3    4    3
 -0.01322878606419047    4    3    6    4
 0.7419889025330183    4    4    1    1
 -0.008814449236465242    4    4    2    1
 0.4593408467391384    4    4    2    2
 -0.00741221210622064    4    4    3    1
 0.04621563081453399    4    4    3    2
 0.5041862576414033    4    4    3    3
 0.5867727439789322    4    4    4    4
 0.5235134814676911    4    4    5    5
 0.004168026575771488    4    4    6    1
 -0.09238076313811244    4    4    6    2
 0.04177944228679972    4    4    6    3
 0.4740773398260829    4    4    6    6
 0.0216950782873387    5    1    5    1
 0.01921155457995588    5    1    5    2
 0.01851865219375421    5    1    5    3
 -0.01161252859365545    5    1    6    5
 0.01921155457995588    5    2    5    1
 0.06039821130266281    5    2    5    2
 0.04342107961102946    5    2    5    3
 -0.03633847993724625    5    2    6    5
 0.01851865219375421    5    3    5    1
 0.04342107961102945    5    3    5    2
 0.06291076116021634    5    3    5    3
 -0.01322878606419046    5    3    6    5
 0.03162963125562031    5    4    5    4
 0.7419889025330181    5    5    1    1
 -0.008814449236465207    5    5    2    1
 0.4593408467391384    5    5    2    2
 -0.007412212106220606    5    5    3    1
 0.04621563081453402    5    5    3    2
 0.5041862576414033    5    5    3    3
 0.5235134814676911    5    5    4    4
 0.586772743978932    5    5    5    5
 0.004168026575771471    5    5    6    1
 -0.09238076313811253    5    5    6    2
 0.04177944228679967    5    5    6    3
 0.4740773398260828    5    5    6    6
 0.1413257075902383    6    1    1    1
 -0.02314657520492046    6    1    2    1
 -0.01238748160972115    6    1    2    2
 -0.005247409917599475    6    1    3    1
 0.01250097777451353    6    1    3    2
 0.02312761306206843    6    1    3    3
 0.004168026575771572    6    1    4    4
 0.00416802657577157    6    1    5    5
 0.02880391396937533    6    1    6    1
 0.005524338027076478    6    1    6    2
 0.01082364008038884    6    1    6    3
 -0.008812192154253081    6    1    6    6
 -0.186190255121262    6    2    1    1
 0.003050017645768176    6    2    2    1
 0.0002084163025976651    6    2    2    2
 0.01158307545322851    6    2    3    1
 -0.05223141555214433    6    2    3    2
 -0.03192699042073567    6    2    3    3
 -0.0923807631381124    6    2    4    4
 -0.09238076313811237    6    2    5    5
 0.005524338027076496    6    2    6    1
 0.1212730361895562    6    2    6    2
 -0.05403162334477736    6    2    6    3
 0.01293203355693659    6    2    6    6
 0.09008046930667071    6    3    1    1
 -0.004192119173798695    6    3    2    1
 -0.05254431697407061    6    3    2    2
 0.006990498122004348    6    3    3    1
 0.05747267715242119    6    3    3    2
 0.07541684244416491    6    3    3    3
 0.0417794422867997    6    3    4    4
 0.04177944228679968    6    3    5    5
 0.01082364008038878    6    3    6    1
 -0.05403162334477741    6    3    6    2
 0.07634911021780025    6    3    6    3
 -0.04207173170262291    6    3    6    6
 -0.01161252859365545    6    4    4    1
 -0.03633847993724626    6    4    4    2
 -0.01322878606419046    6    4    4    3
 0.03249943702929813    6    4    6    4
 -0.01161252859365545    6    5    5    1
 -0.03633847993724625    6    5    5    2
 -0.01322878606419045    6    5    5    3
 0.03249943702929813    6    5    6    5
 0.6699597694264852    6    6    1    1
 -0.004379253657977538    6    6    2    1
 0.5754116421934872    6    6    2    2
 -0.01879243966504134    6    6    3    1
 -0.06327529964411353    6    6    3    2
 0.4565326809201556    6    6    3    3
 0.4740773398260831    6    6    4    4
 0.474077339826083    6    6    5    5
 -0.008812192154253214    6    6    6    1
 0.01293203355693684    6    6    6    2
 -0.04207173170262306    6    6    6    3
 0.6101411445973578    6    6    6    6
 -12.73694583468452    1    1  0  0
 0.2636037738346674    2    1  0  0
 -3.08122009866082    2    2  0  0
 0.2419315877376549    3    1  0  0
 -0.1364127650686597    3    2  0  0
 -2.922828142214635    3    3  0  0
 -2.996085190675585    4    4  0  0
 -2.996085190675584    5    5  0  0
 -0.1527654545391036    6    1  0  0
 0.4703521766204644    6    2  0  0
 -0.2079679737989178    6    3  0  0
 -2.475899716280425    6    6  0  0
 2.147634784577923  0  0  0  0
