 &FCI NORB=  10,NELEC=10,MS2=0,
  ORBSYM=1,1,1,1,1,1,1,1,1,1,
  ISYM=1,
 &END
 0.2719135056885718    1    1    1    1
 -1.283695372222837e-15    1    1    2    1
 0.2135322765337839    1    1    2    2
 -0.05771891560773984    1    1    3    1
 -1.797173521111972e-15    1    1    3    2
 0.209778034210176    1    1    3    3
 1.316655118266397e-15    1    1    4    1
 -0.0595580954535557    1    1    4    2
 -1.500535806719938e-15    1    1    4    3
 0.2048146572786106    1    1    4    4
 -0.0007667669690404719    1    1    5    1
 -1.114559833315099e-15    1    1    5    2
 0.06116489876137325    1    1    5    3
 1.627170620466245e-15    1    1    5    4
 0.2359458813967895    1    1    5    5
 -7.936359902593892e-17    1    1    6    1
 -0.003243328258909472    1    1    6    2
 -8.951173136040325e-16    1    1    6    3
 0.05291221201647324    1    1    6    4
 -1.179611963664229e-15    1    1    6    5
 0.2374153884582209    1    1    6    6
 0.001039530978195261    1    1    7    1
 2.012279232133096e-16    1    1    7    2
 -0.008383868636907571    1    1    7    3
 5.551115123125783e-16    1    1    7    4
 0.05426855834446991    1    1    7    5
 1.831867990631508e-15    1    1    7    6
 0.209452890323557    1    1    7    7
 -4.85722573273506e-17    1    1    8    1
 -0.00372548805991189    1    1    8    2
 -1.387778780781446e-17    1    1    8    3
 -0.009304304266424797    1    1    8    4
 -9.645062526431047e-16    1    1    8    5
 0.06286754223248477    1    1    8    6
 -1.020017403874363e-15    1    1    8    7
 0.217064857271385    1    1    8    8
 -0.002300517755399142    1    1    9    1
 -5.551115123125783e-17    1    1    9    2
 -0.004337834271397153    1    1    9    3
 1.908195823574488e-16    1    1    9    4
 -0.003131806471713798    1    1    9    5
 -7.624109676918067e-16    1    1    9    6
 -0.06221218356732444    1    1    9    7
 -1.375635716449608e-15    1    1    9    8
 0.2218190728402289    1    1    9    9
 -2.775557561562891e-17    1    1   10    1
 0.002666469712595804    1    1   10    2
 -4.85722573273506e-17    1    1   10    3
 -0.001026290222846632    1    1   10    4
 -5.681219383824043e-17    1    1   10    5
 0.0004598467237082299    1    1   10    6
 -7.702172233337023e-16    1    1   10    7
 0.06143018353433492    1    1   10    8
 2.229987028368186e-15    1    1   10    9
 0.2852690919516131    1    1   10   10
 -1.276322797449936e-15    2    1    1    1
 0.1070778312549922    2    1    2    1
 1.450228825916611e-15    2    1    2    2
 -1.345711736489008e-15    2    1    3    1
 0.06525238788372528    2    1    3    2
 3.590877595271991e-16    2    1    3    3
 -0.04287770784843427    2    1    4    1
 -1.222112688825661e-15    2    1    4    2
 0.0622022766089781    2    1    4    3
 4.076600168545497e-16    2    1    4    4
 -9.805524447958902e-16    2    1    5    1
 0.04436027601429843    2    1    5    2
 1.184816134092159e-15    2    1    5    3
 -0.08055441338718669    2    1    5    4
 2.255140518769849e-16    2    1    5    5
 -0.002968360877592111    2    1    6    1
 -7.28583859910259e-16    2    1    6    2
 0.04268433110040729    2    1    6    3
 8.465450562766819e-16    2    1    6    4
 0.05557040913152933    2    1    6    5
 6.245004513516506e-16    2    1    6    6
 1.214306433183765e-16    2    1    7    1
 -0.006218164528317324    2    1    7    2
 4.85722573273506e-16    2    1    7    3
 -0.0318793596462497    2    1    7    4
 8.534839501805891e-16    2    1    7    5
 -0.08175139483705947    2    1    7    6
 1.457167719820518e-16    2    1    7    7
 -0.003237152520878292    2    1    8    1
 -1.040834085586084e-16    2    1    8    2
 -0.0008086054842363233    2    1    8    3
 4.093947403305265e-16    2    1    8    4
 0.04387706361307386    2    1    8    5
 8.430756093247282e-16    2    1    8    6
 0.0645170679249823    2    1    8    7
 -2.099015405931937e-16    2    1    8    8
 -7.28583859910259e-17    2    1    9    1
 -0.0007352683863011376    2    1    9    2
 -2.42861286636753e-17    2    1    9    3
 -0.006947913302373193    2    1    9    4
 -5.412337245047638e-16    2    1    9    5
 0.04561233492813795    2    1    9    6
 -7.311859451242242e-16    2    1    9    7
 0.06807998679900459    2    1    9    8
 5.455705331947058e-16    2    1    9    9
 -0.001064022506667284    2    1   10    1
 2.081668171172169e-17    2    1   10    2
 0.003625660103058213    2    1   10    3
 -7.28583859910259e-17    2    1   10    4
 0.002849998466040588    2    1   10    5
 6.153931531027723e-16    2    1   10    6
 0.04483128601773538    2    1   10    7
 1.375635716449608e-15    2    1   10    8
 -0.1134691146226011    2    1   10    9
 4.477754972365133e-16    2    1   10   10
 0.2135322765337839    2    2    1    1
 1.445892017226669e-15    2    2    2    1
 0.2396740849178484    2    2    2    2
 0.0249501729293154    2    2    3    1
 1.115427195053087e-15    2    2    3    2
 0.2043850884190881    2    2    3    3
 -8.881784197001252e-16    2    2    4    1
 -0.01205594897277364    2    2    4    2
 7.667477763817487e-16    2    2    4    3
 0.2132062155627702    2    2    4    4
 0.0353092170198321    2    2    5    1
 1.280225925270884e-15    2    2    5    2
 0.001113430601256642    2    2    5    3
 -1.160530005428484e-15    2    2    5    4
 0.2138936383648609    2    2    5    5
 -6.904199434387692e-16    2    2    6    1
 0.03236086287156834    2    2    6    2
 1.042568809062061e-15    2    2    6    3
 0.003979733925699133    2    2    6    4
 6.938893903907228e-16    2    2    6    5
 0.2151299327685745    2    2    6    6
 -0.004691009786066425    2    2    7    1
 2.116362640691705e-16    2    2    7    2
 -0.03459658488135228    2    2    7    3
 -8.049116928532385e-16    2    2    7    4
 0.004723785546635759    2    2    7    5
 -1.283695372222837e-15    2    2    7    6
 0.2172257936862807    2    2    7    7
 -1.838806884535416e-16    2    2    8    1
 -0.003657702562831155    2    2    8    2
 2.636779683484747e-16    2    2    8    3
 -0.035545887748736    2    2    8    4
 7.546047120499111e-16    2    2    8    5
 0.001349265666253463    2    2    8    6
 8.291978215169138e-16    2    2    8    7
 0.2106489655907659    2    2    8    8
 -0.0007901982796604274    2    2    9    1
 -1.249000902703301e-16    2    2    9    2
 -0.004357894829045077    2    2    9    3
 5.204170427930421e-17    2    2    9    4
 0.03317981387687303    2    2    9    5
 1.106753577673203e-15    2    2    9    6
 -0.01272095863229621    2    2    9    7
 8.36136715420821e-16    2    2    9    8
 0.249025709541147    2    2    9    9
 -2.081668171172169e-17    2    2   10    1
 0.001116111925952023    2    2   10    2
 1.231653667943533e-16    2    2   10    3
 0.005201094304403294    2    2   10    4
 3.816391647148976e-16    2    2   10    5
 -0.0361783158756831    2    2   10    6
 1.103284130721249e-15    2    2   10    7
 -0.02501896706180026    2    2   10    8
 -2.018350764299015e-15    2    2   10    9
 0.2246720836295986    2    2   10   10
 -0.05771891560773988    3    1    1    1
 -1.350915906916939e-15    3    1    2    1
 0.02495017292931541    3    1    2    2
 0.08088177709772652    3    1    3    1
 1.48318857196017e-16    3    1    3    2
 -0.005694140722575204    3    1    3    3
 -7.806255641895632e-16    3    1    4    1
 0.04672125422176103    3    1    4    2
 -2.775557561562891e-16    3    1    4    3
 0.007985878079571972    3    1    4    4
 0.03511966415847821    3    1    5    1
 8.27463098040937e-16    3    1    5    2
 -0.05921709293892907    3    1    5    3
 3.851086116668512e-16    3    1    5    4
 -0.02241512891113883    3    1    5    5
 -6.29704621779581e-16    3    1    6    1
 0.03433487759841741    3    1    6    2
 4.267419750902945e-16    3    1    6    3
 -0.04769176432925898    3    1    6    4
 -3.243932900076629e-16    3    1    6    5
 -0.02251252965698172    3    1    6    6
 -0.005262688214109073    3    1    7    1
 3.712308238590367e-16    3    1    7    2
 -0.02566231126094852    3    1    7    3
 -3.365363543395006e-16    3    1    7    4
 -0.04843525193843833    3    1    7    5
 1.700029006457271e-16    3    1    7    6
 0.007270654535654173    3    1    7    7
 -6.938893903907228e-18    3    1    8    1
 -0.0001507768381662587    3    1    8    2
 3.608224830031759e-16    3    1    8    3
 -0.02557816581121298    3    1    8    4
 1.561251128379126e-16    3    1    8    5
 -0.06063200985747148    3    1    8    6
 -7.840950111415168e-16    3    1    8    7
 -0.006820704847870005    3    1    8    8
 0.000939698133821212    3    1    9    1
 -1.734723475976807e-17    3    1    9    2
 -0.0001451454034599388    3    1    9    3
 2.255140518769849e-16    3    1    9    4
 0.03509835633121934    3    1    9    5
 2.393918396847994e-16    3    1    9    6
 0.04874158332287198    3    1    9    7
 -6.34041430469523e-16    3    1    9    8
 0.02584468338626092    3    1    9    9
 4.85722573273506e-17    3    1   10    1
 -0.001047551907658165    3    1   10    2
 4.85722573273506e-17    3    1   10    3
 0.005797536219575179    3    1   10    4
 4.579669976578771e-16    3    1   10    5
 -0.03568313627515171    3    1   10    6
 3.833738881908744e-16    3    1   10    7
 -0.0847187582544848    3    1   10    8
 1.294537393947692e-16    3    1   10    9
 -0.06024047162299976    3    1   10   10
 -1.793704074160019e-15    3    2    1    1
 0.06525238788372528    3    2    2    1
 1.118896642005041e-15    3    2    2    2
 1.509209424099822e-16    3    2    3    1
 0.09030634042979668    3    2    3    2
 1.97758476261356e-16    3    2    3    3
 0.02169548874317431    3    2    4    1
 4.423544863740858e-16    3    2    4    2
 0.07161531488939708    3    2    4    3
 5.030698080332741e-16    3    2    4    4
 6.496539417533143e-16    3    2    5    1
 -0.002943656982132592    3    2    5    2
 -3.365363543395006e-16    3    2    5    3
 -0.07104214844562312    3    2    5    4
 -3.642919299551295e-16    3    2    5    5
 0.02712991317660465    3    2    6    1
 7.459310946700271e-16    3    2    6    2
 0.002267686966858618    3    2    6    3
 -4.440892098500626e-16    3    2    6    4
 0.05029663765318164    3    2    6    5
 1.387778780781446e-17    3    2    6    6
 3.33066907387547e-16    3    2    7    1
 -0.02799827961629774    3    2    7    2
 -5.030698080332741e-16    3    2    7    3
 0.008133011190474345    3    2    7    4
 -4.232725281383409e-16    3    2    7    5
 -0.07183481210683981    3    2    7    6
 1.647987302177967e-16    3    2    7    7
 -0.001375147179501227    3    2    8    1
 1.630640067418199e-16    3    2    8    2
 -0.02448459200782569    3    2    8    3
 -3.747002708109903e-16    3    2    8    4
 0.002695920562279996    3    2    8    5
 -5.325601071248798e-16    3    2    8    6
 0.07323096429391798    3    2    8    7
 -6.730727086790012e-16    3    2    8    8
 -3.816391647148976e-17    3    2    9    1
 -0.0001771532990596861    3    2    9    2
 1.144917494144693e-16    3    2    9    3
 -0.0285685422191652    3    2    9    4
 4.666406150377611e-16    3    2    9    5
 -0.002715442657981578    3    2    9    6
 4.371503159461554e-16    3    2    9    7
 0.09297444444689473    3    2    9    8
 1.150121664572623e-15    3    2    9    9
 -0.0005206137085990679    3    2   10    1
 2.775557561562891e-17    3    2   10    2
 0.001831786025133076    3    2   10    3
 -5.898059818321144e-17    3    2   10    4
 -0.02729609989096018    3    2   10    5
 -5.93275428784068e-16    3    2   10    6
 -0.02117953301661502    3    2   10    7
 -6.522560269672795e-16    3    2   10    8
 -0.07042094094239126    3    2   10    9
 -6.166941957097549e-16    3    2   10   10
 0.209778034210176    3    3    1    1
 3.538835890992686e-16    3    3    2    1
 0.2043850884190881    3    3    2    2
 -0.005694140722575214    3    3    3    1
 2.012279232133096e-16    3    3    3    2
 0.2323774225821818    3    3    3    3
 -2.949029909160572e-17    3    3    4    1
 0.02197302567741438    3    3    4    2
 3.191891195797325e-16    3    3    4    3
 0.207341114946769    3    3    4    4
 -0.02859113433620741    3    3    5    1
 -2.185751579730777e-16    3    3    5    2
 0.004300746285171759    3    3    5    3
 -2.220446049250313e-16    3    3    5    4
 0.2100285518901546    3    3    5    5
 2.003605614753212e-16    3    3    6    1
 -4.221904013976784e-05    3    3    6    2
 4.683753385137379e-17    3    3    6    3
 0.00458630702125579    3    3    6    4
 1.387778780781446e-16    3    3    6    5
 0.2109580877288481    3    3    6    6
 -0.02040165221050795    3    3    7    1
 -4.215378046623641e-16    3    3    7    2
 -0.001061317141163528    3    3    7    3
 9.71445146547012e-17    3    3    7    4
 0.005610436606715527    3    3    7    5
 -1.509209424099822e-16    3    3    7    6
 0.2108842306205813    3    3    7    7
 1.994931997373328e-16    3    3    8    1
 -0.02330175225600689    3    3    8    2
 -2.498001805406602e-16    3    3    8    3
 -0.001980005299219521    3    3    8    4
 -3.816391647148976e-17    3    3    8    5
 0.005068456387391071    3    3    8    6
 1.97758476261356e-16    3    3    8    7
 0.2375603022623377    3    3    8    8
 -0.001071442090721201    3    3    9    1
 8.326672684688674e-17    3    3    9    2
 -0.02397996784780894    3    3    9    3
 -2.34187669256869e-16    3    3    9    4
 0.0003693023826924751    3    3    9    5
 -3.469446951953614e-18    3    3    9    6
 0.02015409394800537    3    3    9    7
 4.128641872824801e-16    3    3    9    8
 0.2137682392302787    3    3    9    9
 6.938893903907228e-18    3    3   10    1
 0.001493436850267556    3    3   10    2
 -1.517883041479706e-16    3    3   10    3
 0.0205801671989395    3    3   10    4
 -2.550043509685906e-16    3    3   10    5
 0.0272825429496792    3    3   10    6
 5.204170427930421e-17    3    3   10    7
 0.005682596951931167    3    3   10    8
 -3.729655473350135e-16    3    3   10    9
 0.2205961403230399    3    3   10   10
 1.314486713921426e-15    4    1    1    1
 -0.04287770784843427    4    1    2    1
 -8.916478666520788e-16    4    1    2    2
 -7.825771281000371e-16    4    1    3    1
 0.02169548874317431    4    1    3    2
 -4.9439619065339e-17    4    1    3    3
 0.06258051389282684    4    1    4    1
 1.118896642005041e-16    4    1    4    2
 0.008552231590580561    4    1    4    3
 -7.28583859910259e-17    4    1    4    4
 8.187894806610529e-16    4    1    5    1
 -0.04780174749943003    4    1    5    2
 2.619432448724979e-16    4    1    5    3
 0.01206705639851446    4    1    5    4
 1.509209424099822e-16    4    1    5    5
 0.02665688390183493    4    1    6    1
 5.342948306008566e-16    4    1    6    2
 -0.03882937333170527    4    1    6    3
 1.630640067418199e-16    4    1    6    4
 -0.006385208688702243    4    1    6    5
 1.335737076502141e-16    4    1    6    6
 3.885780586188048e-16    4    1    7    1
 -0.02050747490687329    4    1    7    2
 -3.348016308635238e-16    4    1    7    3
 0.03888560286980956    4    1    7    4
 1.778091562876227e-16    4    1    7    5
 0.01230295773553846    4    1    7    6
 -1.249000902703301e-16    4    1    7    7
 -0.0002030042571824762    4    1    8    1
 2.992397996059992e-16    4    1    8    2
 -0.02182779361659652    4    1    8    3
 -1.387778780781446e-16    4    1    8    4
 -0.03982447292170425    4    1    8    5
 4.40619762898109e-16    4    1    8    6
 0.007637363522803746    4    1    8    7
 -2.810252031082427e-16    4    1    8    8
 3.642919299551295e-17    4    1    9    1
 -0.0007781872708408943    4    1    9    2
 1.951563910473908e-16    4    1    9    3
 -0.02020780157107845    4    1    9    4
 9.367506770274758e-17    4    1    9    5
 -0.04874472408258325    4    1    9    6
 -4.215378046623641e-16    4    1    9    7
 0.02147489915670179    4    1    9    8
 -2.211772431870429e-17    4    1    9    9
 -0.0001784413560022901    4    1   10    1
 6.938893903907228e-18    4    1   10    2
 9.903059187987926e-05    4    1   10    3
 -1.908195823574488e-16    4    1   10    4
 -0.02687478909563736    4    1   10    5
 -3.660266534311063e-16    4    1   10    6
 -0.06420267028017268    4    1   10    7
 3.97685356867683e-16    4    1   10    8
 0.04451895773613526    4    1   10    9
 8.023096076392733e-16    4    1   10   10
 -0.05955809545355571    4    2    1    1
 -1.218209561004713e-15    4    2    2    1
 -0.01205594897277364    4    2    2    2
 0.04672125422176102    4    2    3    1
 4.397524011601206e-16    4    2    3    2
 0.02197302567741438    4    2    3    3
 1.092875789865388e-16    4    2    4    1
 0.07884692589323011    4    2    4    2
 3.226585665316861e-16    4    2    4    3
 0.001280403690057419    4    2    4    4
 -0.03038689998292421    4    2    5    1
 -5.741934705483231e-16    4    2    5    2
 -0.05377753296956946    4    2    5    3
 2.42861286636753e-16    4    2    5    4
 -0.02662794884571829    4    2    5    5
 4.839878497975292e-16    4    2    6    1
 0.000103502871968917    4    2    6    2
 -3.677613769070831e-16    4    2    6    3
 -0.04426329282535235    4    2    6    4
 -9.71445146547012e-17    4    2    6    5
 -0.02673455586384135    4    2    6    6
 -0.02049521045527097    4    2    7    1
 -5.585809592645319e-16    4    2    7    2
 0.008367347869882118    4    2    7    3
 5.672545766444159e-16    4    2    7    4
 -0.04497396820091291    4    2    7    5
 1.561251128379126e-16    4    2    7    6
 1.031586266645942e-05    4    2    7    7
 3.018418848199644e-16    4    2    8    1
 -0.02051016005616235    4    2    8    2
 -3.348016308635238e-16    4    2    8    3
 0.008725845778714096    4    2    8    4
 -4.093947403305265e-16    4    2    8    5
 -0.05457948876584447    4    2    8    6
 -2.801578413702543e-16    4    2    8    7
 0.019643507623719    4    2    8    8
 -0.0003100540317197283    4    2    9    1
 1.123233450694983e-16    4    2    9    2
 -0.02029422409791932    4    2    9    3
 -3.677613769070831e-16    4    2    9    4
 0.0004694182731242872    4    2    9    5
 -7.467984564080155e-16    4    2    9    6
 0.07973083023043565    4    2    9    7
 2.185751579730777e-16    4    2    9    8
 -0.01150356726899533    4    2    9    9
 4.163336342344337e-17    4    2   10    1
 0.0001721954174062007    4    2   10    2
 -1.318389841742373e-16    4    2   10    3
 0.02072400836421798    4    2   10    4
 -3.642919299551295e-16    4    2   10    5
 0.02946210218263464    4    2   10    6
 -6.591949208711867e-16    4    2   10    7
 -0.05041272763313614    4    2   10    8
 5.325601071248798e-16    4    2   10    9
 -0.06279903273810894    4    2   10   10
 -1.495331636292008e-15    4    3    1    1
 0.0622022766089781    4    3    2    1
 7.73686670285656e-16    4    3    2    2
 -2.827599265842196e-16    4    3    3    1
 0.07161531488939707    4    3    3    2
 2.810252031082427e-16    4    3    3    3
 0.008552231590580557    4    3    4    1
 3.122502256758253e-16    4    3    4    2
 0.08880969960351816    4    3    4    3
 4.614364446098307e-16    4    3    4    4
 9.367506770274758e-17    4    3    5    1
 -0.02225456741037249    4    3    5    2
 -5.204170427930421e-17    4    3    5    3
 -0.06992666765426035    4    3    5    4
 -2.844946500601964e-16    4    3    5    5
 -0.01719759226680676    4    3    6    1
 -1.639313684798083e-16    4    3    6    2
 0.001119482425041749    4    3    6    3
 -2.151057110211241e-16    4    3    6    4
 0.04883416013782187    4    3    6    5
 4.510281037539698e-17    4    3    6    6
 -1.97758476261356e-16    4    3    7    1
 0.0007625437775641477    4    3    7    2
 9.367506770274758e-17    4    3    7    3
 0.0088183302421191    4    3    7    4
 -1.110223024625157e-16    4    3    7    5
 -0.07036837355270918    4    3    7    6
 7.632783294297951e-17    4    3    7    7
 -0.01775008725096059    4    3    8    1
 -2.844946500601964e-16    4    3    8    2
 0.001816949696284003    4    3    8    3
 5.551115123125783e-17    4    3    8    4
 0.00188345752444609    4    3    8    5
 -1.413799632921098e-16    4    3    8    6
 0.0885469845274421    4    3    8    7
 -4.059252933785729e-16    4    3    8    8
 1.595945597898663e-16    4    3    9    1
 -0.01800292998046151    4    3    9    2
 -1.942890293094024e-16    4    3    9    3
 -0.0003745781433476501    4    3    9    4
 -5.204170427930421e-17    4    3    9    5
 -0.02036099114723873    4    3    9    6
 5.082739784612045e-16    4    3    9    7
 0.07529686280954687    4    3    9    8
 5.238864897449957e-16    4    3    9    9
 0.0005737236817156066    4    3   10    1
 -1.110223024625157e-16    4    3   10    2
 0.01789641741276912    4    3   10    3
 1.52655665885959e-16    4    3   10    4
 0.01541345086112878    4    3   10    5
 1.786765180256111e-16    4    3   10    6
 -0.008846209327337696    4    3   10    7
 -1.734723475976807e-17    4    3   10    8
 -0.06708815763101919    4    3   10    9
 -5.165139149720943e-16    4    3   10   10
 0.2048146572786106    4    4    1    1
 3.946495907847236e-16    4    4    2    1
 0.2132062155627702    4    4    2    2
 0.007985878079571965    4    4    3    1
 5.134781488891349e-16    4    4    3    2
 0.207341114946769    4    4    3    3
 -7.459310946700271e-17    4    4    4    1
 0.00128040369005741    4    4    4    2
 4.787836793695988e-16    4    4    4    3
 0.2246143287070161    4    4    4    4
 0.008714483433859631    4    4    5    1
 1.804112415015879e-16    4    4    5    2
 -0.01730696425834853    4    4    5    3
 -5.238864897449957e-16    4    4    5    4
 0.2084447035074809    4    4    5    5
 -1.023486850826316e-16    4    4    6    1
 -0.01024869855399782    4    4    6    2
 3.295974604355933e-17    4    4    6    3
 0.001178781394543993    4    4    6    4
 1.804112415015879e-16    4    4    6    5
 0.2088972324257383    4    4    6    6
 0.01596171210888997    4    4    7    1
 3.087807787238717e-16    4    4    7    2
 -0.003071065699095519    4    4    7    3
 -2.775557561562891e-17    4    4    7    4
 0.002491705335447    4    4    7    5
 -4.787836793695988e-16    4    4    7    6
 0.2258668608519628    4    4    7    7
 -1.674008154317619e-16    4    4    8    1
 0.001649232800536434    4    4    8    2
 6.938893903907228e-17    4    4    8    3
 -0.004793715991012377    4    4    8    4
 2.949029909160572e-17    4    4    8    5
 -0.0145991144609938    4    4    8    6
 4.093947403305265e-16    4    4    8    7
 0.2141248734032968    4    4    8    8
 -0.01506743271188133    4    4    9    1
 -2.914335439641036e-16    4    4    9    2
 0.0003821176300046469    4    4    9    3
 1.630640067418199e-16    4    4    9    4
 -0.00765871599105173    4    4    9    5
 1.040834085586084e-17    4    4    9    6
 0.00104639245774801    4    4    9    7
 4.128641872824801e-16    4    4    9    8
 0.2230284778678226    4    4    9    9
 -1.804112415015879e-16    4    4   10    1
 0.01545911006955741    4    4   10    2
 1.717376241217039e-16    4    4   10    3
 -0.01402993203551835    4    4   10    4
 9.80118763926896e-17    4    4   10    5
 -0.008770424909909936    4    4   10    6
 1.006139616066548e-16    4    4   10    7
 -0.008409032690840371    4    4   10    8
 -5.377642775528102e-16    4    4   10    9
 0.2158247737252613    4    4   10   10
 -0.0007667669690404868    5    1    1    1
 -9.795766628406533e-16    5    1    2    1
 0.03530921701983211    5    1    2    2
 0.03511966415847823    5    1    3    1
 6.461844948013606e-16    5    1    3    2
 -0.02859113433620742    5    1    3    3
 8.135853102331225e-16    5    1    4    1
 -0.0303868999829242    5    1    4    2
 9.194034422677078e-17    5    1    4    3
 0.008714483433859607    5    1    4    4
 0.06528155885353265    5    1    5    1
 6.938893903907228e-18    5    1    5    2
 -0.009814831625432846    5    1    5    3
 1.134075472419838e-16    5    1    5    4
 0.002567373736713652    5    1    5    5
 -4.718447854656915e-16    5    1    6    1
 0.03040069685086816    5    1    6    2
 -2.662800535624399e-16    5    1    6    3
 -0.004637574615428167    5    1    6    4
 -1.617629641348373e-16    5    1    6    5
 0.002631333536207308    5    1    6    6
 0.01871019343920287    5    1    7    1
 4.267419750902945e-16    5    1    7    2
 -0.03212742263925905    5    1    7    3
 2.029626466892864e-16    5    1    7    4
 -0.004768247681334589    5    1    7    5
 -1.344410693882025e-17    5    1    7    6
 0.008815762553662603    5    1    7    7
 -4.163336342344337e-16    5    1    8    1
 0.02146043572822283    5    1    8    2
 1.370431546021678e-16    5    1    8    3
 -0.03242112662798077    5    1    8    4
 -4.98732999343332e-16    5    1    8    5
 -0.01012170248736563    5    1    8    6
 1.387778780781446e-16    5    1    8    7
 -0.02745749089883057    5    1    8    8
 -0.001206446053474838    5    1    9    1
 -2.775557561562891e-16    5    1    9    2
 0.0212648982868217    5    1    9    3
 7.28583859910259e-17    5    1    9    4
 0.03123347066272188    5    1    9    5
 -4.510281037539698e-16    5    1    9    6
 -0.0291188621263339    5    1    9    7
 9.71445146547012e-17    5    1    9    8
 0.03586360885951699    5    1    9    9
 -2.417770844642675e-17    5    1   10    1
 0.001168345294700522    5    1   10    2
 2.914335439641036e-16    5    1   10    3
 -0.01812473947335218    5    1   10    4
 1.908195823574488e-16    5    1   10    5
 -0.0650281222223914    5    1   10    6
 -7.216449660063518e-16    5    1   10    7
 -0.03573004633497294    5    1   10    8
 4.653395724307785e-16    5    1   10    9
 -0.0003722949731890539    5    1   10   10
 -1.119194797602474e-15    5    2    1    1
 0.04436027601429843    5    2    2    1
 1.280225925270884e-15    5    2    2    2
 8.291978215169138e-16    5    2    3    1
 -0.002943656982132591    5    2    3    2
 -2.055647319032516e-16    5    2    3    3
 -0.04780174749943004    5    2    4    1
 -5.776629175002768e-16    5    2    4    2
 -0.0222545674103725    5    2    4    3
 1.960237527853792e-16    5    2    4    4
 6.071532165918825e-18    5    2    5    1
 0.06285957487430066    5    2    5    2
 -1.97758476261356e-16    5    2    5    3
 -0.01574845888189377    5    2    5    4
 -4.466912950640278e-17    5    2    5    5
 0.01430602602039381    5    2    6    1
 2.393918396847994e-16    5    2    6    2
 0.03528089274968141    5    2    6    3
 -5.030698080332741e-17    5    2    6    4
 0.007964084678179916    5    2    6    5
 3.035766082959412e-17    5    2    6    6
 3.41740524767431e-16    5    2    7    1
 -0.003558403453613128    5    2    7    2
 -2.680147770384167e-16    5    2    7    3
 -0.03637408468487556    5    2    7    4
 -1.422473250300982e-16    5    2    7    5
 -0.01588026523915655    5    2    7    6
 2.8796409701215e-16    5    2    7    7
 0.01742643444269534    5    2    8    1
 3.28946939132102e-16    5    2    8    2
 -0.00183463191869784    5    2    8    3
 -2.983724378680108e-16    5    2    8    4
 0.03636187472020762    5    2    8    5
 -4.649058915617843e-16    5    2    8    6
 -0.01962514647668058    5    2    8    7
 -1.509209424099822e-16    5    2    8    8
 -2.758210326803123e-16    5    2    9    1
 0.01741899333492435    5    2    9    2
 2.866630544051674e-16    5    2    9    3
 -0.003692286409191565    5    2    9    4
 3.191891195797325e-16    5    2    9    5
 0.06227201305794967    5    2    9    6
 -2.42861286636753e-16    5    2    9    7
 -0.003391539236996008    5    2    9    8
 6.938893903907228e-16    5    2    9    9
 0.001016442655657901    5    2   10    1
 2.0643209364124e-16    5    2   10    2
 -0.01679760461467064    5    2   10    3
 -2.567390744445674e-16    5    2   10    4
 -0.01264555128562887    5    2   10    5
 -6.106226635438361e-16    5    2   10    6
 0.05009172584571667    5    2   10    7
 -6.175615574477433e-16    5    2   10    8
 -0.04656853890893904    5    2   10    9
 -4.375839968151496e-16    5    2   10   10
 0.06116489876137327    5    3    1    1
 1.177877240188252e-15    5    3    2    1
 0.001113430601256645    5    3    2    2
 -0.05921709293892906    5    3    3    1
 -3.287300986976049e-16    5    3    3    2
 0.004300746285171764    5    3    3    3
 2.671474153004283e-16    5    3    4    1
 -0.05377753296956947    5    3    4    2
 -6.418476861114186e-17    5    3    4    3
 -0.01730696425834851    5    3    4    4
 -0.00981483162543284    5    3    5    1
 -2.003605614753212e-16    5    3    5    2
 0.0717378310778664    5    3    5    3
 -2.445960101127298e-16    5    3    5    4
 0.02859543806772685    5    3    5    5
 -6.635317295611287e-17    5    3    6    1
 0.007425143513455258    5    3    6    2
 6.938893903907228e-17    5    3    6    3
 0.04304693635288455    5    3    6    4
 2.099015405931937e-16    5    3    6    5
 0.02845511279908496    5    3    6    6
 -0.01538643067047412    5    3    7    1
 -1.942890293094024e-16    5    3    7    2
 -0.001652042121676851    5    3    7    3
 -1.153591111524577e-16    5    3    7    4
 0.04402330914585357    5    3    7    5
 -1.35308431126191e-16    5    3    7    6
 -0.01393635226942991    5    3    7    7