 &FCI NORB=   4,NELEC= 4,MS2=0,
  ORBSYM=1,1,1,1,
  ISYM=1,
 &END
 0.5068898550551018    1    1    1    1
 0.003794527559320846    1    1    2    1
 0.4098635263371225    1    1    2    2
 1.025916213093225e-09    1    1    3    1
 -8.035957177465747e-10    1    1    3    2
 0.445100515768005    1    1    3    3
 0.09719871204645167    1    1    4    1
 0.05096181960669316    1    1    4    2
 -2.511664404236669e-09    1    1    4    3
 0.5183452230109675    1    1    4    4
 0.003794527559320839    2    1    1    1
 0.08813159971644449    2    1    2    1
 0.07782243723669213    2    1    2    2
 -5.653522719417658e-10    2    1    3    1
 -4.283259379123106e-09    2    1    3    2
 -0.08764576192895299    2    1    3    3
 0.02826446097635334    2    1    4    1
 -0.08001497578900814    2    1    4    2
 7.330390461302017e-11    2    1    4    3
 0.05589849747028398    2    1    4    4
 0.4098635263371225    2    2    1    1
 0.07782243723669217    2    2    2    1
 0.521293056868916    2    2    2    2
 -5.046337625547181e-09    2    2    3    1
 1.404773519730895e-11    2    2    3    2
 0.3561543663891216    2    2    3    3
 -0.001427950323337701    2    2    4    1
 -0.09114783741363394    2    2    4    2
 3.876907371525018e-09    2    2    4    3
 0.4713483506720944    2    2    4    4
 1.025916174929309e-09    3    1    1    1
 -5.653522754112128e-10    3    1    2    1
 -5.046337653302757e-09    3    1    2    2
 0.1293028829330219    3    1    3    1
 -0.1072466481774506    3    1    3    2
 4.05264671821115e-09    3    1    3    3
 -1.581443448417374e-09    3    1    4    1
 7.217758335453794e-11    3    1    4    2
 -0.0846859118356684    3    1    4    3
 -1.893284105880522e-09    3    1    4    4
 -8.035956726437643e-10    3    2    1    1
 -4.283259382592552e-09    3    2    2    1
 1.404779764735409e-11    3    2    2    2
 -0.1072466481774506    3    2    3    1
 0.09458993631478847    3    2    3    2
 1.40467162901281e-09    3    2    3    3
 7.391295561709477e-11    3    2    4    1
 4.802033475720391e-09    3    2    4    2
 0.07788008022122561    3    2    4    3
 -1.244524983068374e-09    3    2    4    4
 0.445100515768005    3    3    1    1
 -0.08764576192895296    3    3    2    1
 0.3561543663891216    3    3    2    2
 4.052646773722302e-09    3    3    3    1
 1.404671601257235e-09    3    3    3    2
 0.5359374140556439    3    3    3    3
 -0.006072330211121087    3    3    4    1
 0.1003613149338521    3    3    4    2
 -3.081953497963141e-09    3    3    4    3
 0.4053549128731515    3    3    4    4
 0.09719871204645164    4    1    1    1
 0.02826446097635335    4    1    2    1
 -0.001427950323337657    4    1    2    2
 -1.581443447550013e-09    4    1    3    1
 7.391295756865868e-11    4    1    3    2
 -0.006072330211121068    4    1    3    3
 0.1186180412469477    4    1    4    1
 0.03612665777791915    4    1    4    2
 -1.119209735306326e-09    4    1    4    3
 0.122452034039052    4    1    4    4
 0.05096181960669319    4    2    1    1
 -0.08001497578900814    4    2    2    1
 -0.09114783741363391    4    2    2    2
 7.217762845734832e-11    4    2    3    1
 4.802033409800899e-09    4    2    3    2
 0.1003613149338522    4    2    3    3
 0.03612665777791913    4    2    4    1
 0.1272246486516095    4    2    4    2
 -1.005679005350313e-09    4    2    4    3
 0.004098379798186072    4    2    4    4
 -2.511664473625608e-09    4    3    1    1
 7.330390461302017e-11    4    3    2    1
 3.876907420097275e-09    4    3    2    2
 -0.08468591183566843    4    3    3    1
 0.07788008022122564    4    3    3    2
 -3.081953497963141e-09    4    3    3    3
 -1.119209738775773e-09    4    3    4    1
 -1.005678960247502e-09    4    3    4    2
 0.06715293748280152    4    3    4    3
 -8.629244367674982e-10    4    3    4    4
 0.5183452230109674    4    4    1    1
 0.05589849747028395    4    4    2    1
 0.4713483506720945    4    4    2    2
 -1.89328408506384e-09    4    4    3    1
 -1.244525038579525e-09    4    4    3    2
 0.4053549128731514    4    4    3    3
 0.1224520340390518    4    4    4    1
 0.004098379798186058    4    4    4    2
 -8.629244610536269e-10    4    4    4    3
 0.5934456368866865    4    4    4    4
 -1.80985796887928    1    1  0  0
 -0.08161693543269405    2    1  0  0
 -1.373368656657632    2    2  0  0
 4.184586471194904e-09    3    1  0  0
 5.930225890093923e-10    3    2  0  0
 -1.366056716783876    3    3  0  0
 -0.174357790674463    4    1  0  0
 0.01748866944921174    4    2  0  0
 5.075449520787198e-10    4    3  0  0
 -1.115558063357834    4    4  0  0
 2.168608539661471  0  0  0  0
