 &FCI NORB=   4,NELEC= 4,MS2=0,
  ORBSYM=1,1,1,1,
  ISYM=1,
 &END
 0.4972848339745075    1    1    1    1
 0.4359320880669053    1    1    2    2
 -0.08156519316759378    1    1    3    1
 0.4459940897042067    1    1    3    3
 -0.08424758944235759    1    1    4    2
 0.5229522351411365    1    1    4    4
 0.15738205424163    2    1    2    1
 0.09800095413149047    2    1    3    2
 -0.04308397755872712    2    1    4    1
 0.1506334717723189    2    1    4    3
 0.4359320880669053    2    2    1    1
 0.4536261664575229    2    2    2    2
 0.009805153205494063    2    2    3    1
 0.4477642031214354    2    2    3    3
 -0.004056495701406322    2    2    4    2
 0.4639452964684498    2    2    4    4
 -0.08156519316759377    3    1    1    1
 0.00980515320549403    3    1    2    2
 0.1078321210840757    3    1    3    1
 -0.006862628154546663    3    1    3    3
 0.09851298291873598    3    1    4    2
 -0.08590730305133759    3    1    4    4
 0.09800095413149046    3    2    2    1
 0.137282710722142    3    2    3    2
 0.05296055966886022    3    2    4    1
 0.09936645501760862    3    2    4    3
 0.4459940897042067    3    3    1    1
 0.4477642031214355    3    3    2    2
 -0.006862628154546656    3    3    3    1
 0.467405754178882    3    3    3    3
 -0.002814511040129884    3    3    4    2
 0.4802184232268474    3    3    4    4
 -0.0430839775587271    4    1    2    1
 0.05296055966886019    4    1    3    2
 0.09706949699932359    4    1    4    1
 -0.04096940945032601    4    1    4    3
 -0.08424758944235754    4    2    1    1
 -0.004056495701406274    4    2    2    2
 0.09851298291873598    4    2    3    1
 -0.00281451104012987    4    2    3    3
 0.1046453270311719    4    2    4    2
 -0.09353801655819283    4    2    4    4
 0.1506334717723189    4    3    2    1
 0.09936645501760867    4    3    3    2
 -0.04096940945032605    4    3    4    1
 0.1624644779353707    4    3    4    3
 0.5229522351411362    4    4    1    1
 0.4639452964684498    4    4    2    2
 -0.08590730305133765    4    4    3    1
 0.4802184232268478    4    4    3    3
 -0.09353801655819277    4    4    4    2
 0.5810459172323118    4    4    4    4
 -1.835108696316804    1    1  0  0
 -1.550652517950251    2    2  0  0
 0.1599560968425183    3    1  0  0
 -1.245801753748653    3    3  0  0
 0.1294674738918783    4    2  0  0
 -0.9063250024040324    4    4  0  0
 2.29310124732  0  0  0  0
