 &FCI NORB=   6,NELEC= 6,MS2=0,
  ORBSYM=1,1,1,1,1,1,
  ISYM=1,
 &END
 0.3405802140863509    1    1    1    1
 0.2692917758384298    1    1    2    2
 -0.06828813131765722    1    1    3    1
 0.2963863119302292    1    1    3    3
 -0.06242149663824752    1    1    4    2
 0.2993660413473914    1    1    4    4
 0.008296075160819316    1    1    5    1
 0.06446476889578254    1    1    5    3
 0.2774687774025673    1    1    5    5
 0.009375219851436805    1    1    6    2
 0.07102893902790242    1    1    6    4
 0.3563217091402203    1    1    6    6
 0.1218645845745998    2    1    2    1
 0.09613388666782847    2    1    3    2
 -0.04445515277960078    2    1    4    1
 0.07010483876962852    2    1    4    3
 0.03500442198607656    2    1    5    2
 -0.09758621085336246    2    1    5    4
 -0.0007384305560872249    2    1    6    1
 0.04560540107749143    2    1    6    3
 0.1265883489266239    2    1    6    5
 0.2692917758384298    2    2    1    1
 0.3112652110681455    2    2    2    2
 0.04129261112567156    2    2    3    1
 0.2735790254058288    2    2    3    3
 -0.001473204885322189    2    2    4    2
 0.2754628690682513    2    2    4    4
 0.03239445967155281    2    2    5    1
 0.003239917454584122    2    2    5    3
 0.3178916361521684    2    2    5    5
 0.03348891079907575    2    2    6    2
 -0.03933516688000639    2    2    6    4
 0.2830295621920236    2    2    6    6
 -0.06828813131765722    3    1    1    1
 0.04129261112567158    3    1    2    2
 0.1065466964643124    3    1    3    1
 -0.02495023591106678    3    1    3    3
 0.05452966595864447    3    1    4    2
 -0.02539992552923563    3    1    4    4
 0.02794955292264144    3    1    5    1
 -0.05542054064043091    3    1    5    3
 0.0394892656324503    3    1    5    5
 0.02754275885012849    3    1    6    2
 -0.1074124027244904    3    1    6    4
 -0.07108492970990871    3    1    6    6
 0.09613388666782846    3    2    2    1
 0.117356358569553    3    2    3    2
 0.01841000681599105    3    2    4    1
 0.06471915701077344    3    2    4    3
 -0.005001912777534194    3    2    5    2
 -0.1163969337748609    3    2    5    4
 0.0230573195162725    3    2    6    1
 -0.01533366994996729    3    2    6    3
 0.1015813908546368    3    2    6    5
 0.2963863119302291    3    3    1    1
 0.2735790254058288    3    3    2    2
 -0.02495023591106679    3    3    3    1
 0.3001149287454475    3    3    3    3
 -0.0001593449741428346    3    3    4    2
 0.2989939837381631    3    3    4    4
 -0.01839065978258972    3    3    5    1
 0.004806727051404697    3    3    5    3
 0.2823446739704003    3    3    5    5
 -0.01527658694948972    3    3    6    2
 0.02605010979246581    3    3    6    4
 0.3121956089394762    3    3    6    6
 -0.04445515277960078    4    1    2    1
 0.01841000681599105    4    1    3    2
 0.08570511699002371    4    1    4    1
 -0.01360415848537413    4    1    4    3
 -0.05557785344995735    4    1    5    2
 -0.0159816679789385    4    1    5    4
 0.03119190651888957    4    1    6    1
 -0.08474684451134294    4    1    6    3
 -0.04546449567905838    4    1    6    5
 -0.06242149663824751    4    2    1    1
 -0.001473204885322189    4    2    2    2
 0.05452966595864446    4    2    3    1
 -0.0001593449741428311    4    2    3    3
 0.08285596799885958    4    2    4    2
 -0.003737598205981917    4    2    4    4
 -0.03795865681034608    4    2    5    1
 -0.08155537055536966    4    2    5    3
 -0.001761169977007131    4    2    5    5
 -0.03675333499872382    4    2    6    2
 -0.05740891566751927    4    2    6    4
 -0.06584844470332619    4    2    6    6
 0.07010483876962853    4    3    2    1
 0.06471915701077344    4    3    3    2
 -0.01360415848537412    4    3    4    1
 0.1034975068931626    4    3    4    3
 -0.04919382939086762    4    3    5    2
 -0.06679829826682983    4    3    5    4
 -0.0580602580102066    4    3    6    1
 0.01380251877807094    4    3    6    3
 0.07460271379165262    4    3    6    5
 0.2993660413473914    4    4    1    1
 0.2754628690682512    4    4    2    2
 -0.0253999255292356    4    4    3    1
 0.2989939837381631    4    4    3    3
 -0.003737598205981928    4    4    4    2
 0.3065497607421923    4    4    4    4
 -0.01600230182946917    4    4    5    1
 0.00251633056189221    4    4    5    3
 0.2862948111294085    4    4    5    5
 -0.01735055879715752    4    4    6    2
 0.02718151119496331    4    4    6    4
 0.3169665388180512    4    4    6    6
 0.008296075160819302    5    1    1    1
 0.03239445967155279    5    1    2    2
 0.02794955292264145    5    1    3    1
 -0.0183906597825897    5    1    3    3
 -0.03795865681034607    5    1    4    2
 -0.01600230182946921    5    1    4    4
 0.05734489373630881    5    1    5    1
 0.03648503229700761    5    1    5    3
 0.03224766653627834    5    1    5    5
 0.05638777193066421    5    1    6    2
 -0.02707918220623885    5    1    6    4
 0.009087368447530501    5    1    6    6
 0.03500442198607655    5    2    2    1
 -0.005001912777534165    5    2    3    2
 -0.05557785344995735    5    2    4    1
 -0.0491938293908676    5    2    4    3
 0.1000729884787031    5    2    5    2
 0.005609476004307414    5    2    5    4
 0.04476898608663186    5    2    6    1
 0.05725972263185591    5    2    6    3
 0.03623646678909669    5    2    6    5
 0.06446476889578252    5    3    1    1
 0.003239917454584101    5    3    2    2
 -0.05542054064043091    5    3    3    1
 0.004806727051404763    5    3    3    3
 -0.08155537055536963    5    3    4    2
 0.002516330561892183    5    3    4    4
 0.0364850322970076    5    3    5    1
 0.08482431184660798    5    3    5    3
 0.003237139196233019    5    3    5    5
 0.03866331144068057    5    3    6    2
 0.05831038039821725    5    3    6    4
 0.06924091763827081    5    3    6    6
 -0.09758621085336246    5    4    2    1
 -0.1163969337748609    5    4    3    2
 -0.0159816679789385    5    4    4    1
 -0.06679829826682981    5    4    4    3
 0.005609476004307418    5    4    5    2
 0.1217454178361418    5    4    5    4
 -0.02206356306802722    5    4    6    1
 0.01720010942719271    5    4    6    3
 -0.1045961073774792    5    4    6    5
 0.2774687774025673    5    5    1    1
 0.3178916361521684    5    5    2    2
 0.03948926563245028    5    5    3    1
 0.2823446739704002    5    5    3    3
 -0.001761169977007107    5    5    4    2
 0.2862948111294084    5    5    4    4
 0.03224766653627832    5    5    5    1
 0.003237139196233009    5    5    5    3
 0.3325815011081286    5    5    5    5
 0.03371393460500473    5    5    6    2
 -0.04198722662479198    5    5    6    4
 0.2959042365247369    5    5    6    6
 -0.0007384305560872329    6    1    2    1
 0.02305731951627251    6    1    3    2
 0.03119190651888954    6    1    4    1
 -0.0580602580102066    6    1    4    3
 0.04476898608663187    6    1    5    2
 -0.02206356306802723    6    1    5    4
 0.07914105477233936    6    1    6    1
 -0.03040828998749494    6    1    6    3
 -0.0008704060307874652    6    1    6    5
 0.009375219851436788    6    2    1    1
 0.03348891079907573    6    2    2    2
 0.0275427588501285    6    2    3    1
 -0.01527658694948973    6    2    3    3
 -0.03675333499872382    6    2    4    2
 -0.01735055879715754    6    2    4    4
 0.0563877719306642    6    2    5    1
 0.03866331144068057    6    2    5    3
 0.03371393460500474    6    2    5    5
 0.05805472966832648    6    2    6    2
 -0.02749406947280534    6    2    6    4
 0.01073608413307036    6    2    6    6
 0.04560540107749142    6    3    2    1
 -0.01533366994996728    6    3    3    2
 -0.08474684451134291    6    3    4    1
 0.01380251877807095    6    3    4    3
 0.0572597226318559    6    3    5    2
 0.01720010942719272    6    3    5    4
 -0.03040828998749494    6    3    6    1
 0.08826473242070912    6    3    6    3
 0.0486414993890977    6    3    6    5
 0.07102893902790244    6    4    1    1
 -0.03933516688000633    6    4    2    2
 -0.1074124027244903    6    4    3    1
 0.02605010979246583    6    4    3    3
 -0.05740891566751927    6    4    4    2
 0.0271815111949633    6    4    4    4
 -0.02707918220623886    6    4    5    1
 0.05831038039821722    6    4    5    3
 -0.04198722662479192    6    4    5    5
 -0.02749406947280533    6    4    6    2
 0.114158093843388    6    4    6    4
 0.07645399389763961    6    4    6    6
 0.1265883489266239    6    5    2    1
 0.1015813908546368    6    5    3    2
 -0.04546449567905837    6    5    4    1
 0.07460271379165258    6    5    4    3
 0.03623646678909669    6    5    5    2
 -0.1045961073774792    6    5    5    4
 -0.0008704060307874548    6    5    6    1
 0.04864149938909769    6    5    6    3
 0.1378733942227017    6    5    6    5
 0.3563217091402204    6    6    1    1
 0.2830295621920237    6    6    2    2
 -0.07108492970990869    6    6    3    1
 0.3121956089394763    6    6    3    3
 -0.06584844470332619    6    6    4    2
 0.3169665388180512    6    6    4    4
 0.00908736844753049    6    6    5    1
 0.06924091763827081    6    6    5    3
 0.2959042365247369    6    6    5    5
 0.01073608413307035    6    6    6    2
 0.07645399389763959    6    6    6    4
 0.3834778853565485    6    6    6    6
 -1.696037966439943    1    1  0  0
 -1.538492256247005    2    2  0  0
 0.1067870307836242    3    1  0  0
 -1.483885474763482    3    3  0  0
 0.1468988929110372    4    2  0  0
 -1.386119822620544    4    4  0  0
 -0.05671979375364133    5    1  0  0
 -0.117268458518322    5    3  0  0
 -1.251984891232949    5    5  0  0
 -0.03775827634294857    6    2  0  0
 -0.1072466725959154    6    4  0  0
 -1.267956311081696    6    6  0  0
 3.069227823336  0  0  0  0
