 &FCI NORB=   8,NELEC= 8,MS2=0,
  ORBSYM=1,1,1,1,1,1,1,1,
  ISYM=1,
 &END
 0.3777373646626236    1    1    1    1
 0.3032911140190673    1    1    2    2
 -0.07273594613890115    1    1    3    1
 1.162264728904461e-15    1    1    3    2
 0.2932688073085586    1    1    3    3
 0.07754570140898318    1    1    4    2
 -1.124100812432971e-15    1    1    4    3
 0.3174944778613163    1    1    4    4
 0.003890875696227873    1    1    5    1
 -0.07434801414710537    1    1    5    3
 0.3215704683220267    1    1    5    5
 0.005201431595257785    1    1    6    2
 -0.07689487200458164    1    1    6    4
 0.3061794232828999    1    1    6    6
 0.002667173893774385    1    1    7    1
 0.006624963123186868    1    1    7    3
 0.08093912016067416    1    1    7    5
 1.092875789865388e-15    1    1    7    6
 0.3225353131684576    1    1    7    7
 0.003259294716182586    1    1    8    2
 0.002977681073939263    1    1    8    4
 -0.07700497350018676    1    1    8    6
 1.508342062361834e-15    1    1    8    7
 0.4044233451490636    1    1    8    8
 0.1276875770155474    2    1    2    1
 0.08047088090018464    2    1    3    2
 0.05080555679265045    2    1    4    1
 -0.0921944635936279    2    1    4    3
 -0.05174454563523459    2    1    5    2
 -0.07448342145223696    2    1    5    4
 0.002974896189897208    2    1    6    1
 0.04371406632977299    2    1    6    3
 -0.09523614900298887    2    1    6    5
 -0.001235730136786957    2    1    7    2
 -0.05325811427142381    2    1    7    4
 0.08599567951036789    2    1    7    6
 -0.0009243703453183493    2    1    8    1
 0.004038644591538278    2    1    8    3
 0.05106990181782984    2    1    8    5
 1.080732725533551e-15    2    1    8    6
 0.1354069734259121    2    1    8    7
 0.3032911140190673    2    2    1    1
 0.326040755661211    2    2    2    2
 0.01947938035318023    2    2    3    1
 0.2956896514862595    2    2    3    3
 0.01134293155171051    2    2    4    2
 0.2991617116459523    2    2    4    4
 -0.03722920183189456    2    2    5    1
 -0.01499664100213257    2    2    5    3
 0.3025634122723684    2    2    5    5
 0.03916537208826076    2    2    6    2
 -0.01612583428340721    2    2    6    4
 0.306420649889851    2    2    6    6
 -6.782133604622039e-05    2    2    7    1
 0.04017828471921903    2    2    7    3
 0.01149396611230397    2    2    7    5
 0.3396208110312242    2    2    7    7
 0.0008416569953567281    2    2    8    2
 -0.03685664206883331    2    2    8    4
 0.01634767847087008    2    2    8    6
 0.3254369198479697    2    2    8    8
 -0.07273594613890116    3    1    1    1
 0.01947938035318019    3    1    2    2
 0.08762298463099905    3    1    3    1
 0.001495257363865569    3    1    3    3
 -0.06429327380847667    3    1    4    2
 -0.01974064649916499    3    1    4    4
 -0.03759559984264665    3    1    5    1
 0.05641280519095481    3    1    5    3
 -0.02009129080536805    3    1    5    5
 0.03207328285390884    3    1    6    2
 0.05819894935423993    3    1    6    4
 -0.001179868529573061    3    1    6    6
 -0.001280307351915255    3    1    7    1
 0.0313758884827281    3    1    7    3
 -0.06730161194607866    3    1    7    5
 0.01359428193967588    3    1    7    7
 -0.001243153876571393    3    1    8    2
 -0.03661973803322326    3    1    8    4
 0.08911325905835694    3    1    8    6
 -0.0783191515379387    3    1    8    8
 1.1518563880486e-15    3    2    1    1
 0.0804708809001846    3    2    2    1
 0.1135446628389791    3    2    3    2
 -0.02757311637693935    3    2    4    1
 -0.08929893682906852    3    2    4    3
 -0.006812370871680025    3    2    5    2
 -0.07281976301298612    3    2    5    4
 0.02815328004280931    3    2    6    1
 -0.001447038893572885    3    2    6    3
 -0.09124642274875733    3    2    6    5
 0.02715635318070105    3    2    7    2
 -0.006703918647588987    3    2    7    4
 0.1119817871285603    3    2    7    6
 -0.0008170031280246193    3    2    8    1
 0.02762561424019737    3    2    8    3
 -0.02374471086779989    3    2    8    5
 0.08726034486763701    3    2    8    7
 0.2932688073085586    3    3    1    1
 0.2956896514862595    3    3    2    2
 0.001495257363865576    3    3    3    1
 0.3133875468127063    3    3    3    3
 -0.01645000004907656    3    3    4    2
 0.2952893195540534    3    3    4    4
 0.01602874165277816    3    3    5    1
 -0.007493133009665573    3    3    5    3
 0.2978215703472982    3    3    5    5
 0.005877584447796687    3    3    6    2
 -0.00928015585280758    3    3    6    4
 0.3164120557995788    3    3    6    6
 0.02225045911343843    3    3    7    1
 0.007694112671248757    3    3    7    3
 -0.009117377335470269    3    3    7    5
 0.3117681406263421    3    3    7    7
 0.02225691657236466    3    3    8    2
 0.01095141422836556    3    3    8    4
 0.0002348385631720656    3    3    8    6
 0.3150948068163652    3    3    8    8
 0.05080555679265046    4    1    2    1
 -0.02757311637693937    4    1    3    2
 0.07705004332188665    4    1    4    1
 -0.009747907913098347    4    1    4    3
 -0.04235254330408224    4    1    5    2
 -0.005833794842860932    4    1    5    4
 -0.0265635301134305    4    1    6    1
 0.04369999672526756    4    1    6    3
 -0.01022576867489183    4    1    6    5
 -0.02815349490513309    4    1    7    2
 -0.04483395810359535    4    1    7    4
 -0.02039063733171277    4    1    7    6
 0.001509262734822648    4    1    8    1
 -0.02449451241825074    4    1    8    3
 0.07399502880957334    4    1    8    5
 0.05298564742257036    4    1    8    7
 0.0775457014089832    4    2    1    1
 0.0113429315517105    4    2    2    2
 -0.06429327380847667    4    2    3    1
 -0.01645000004907661    4    2    3    3
 0.08537885995708341    4    2    4    2
 0.02525578093189796    4    2    4    4
 -0.01479660967840978    4    2    5    1
 -0.05687660463088976    4    2    5    3
 0.02537610127150836    4    2    5    5
 -0.0009315177863644959    4    2    6    2
 -0.05896902700886359    4    2    6    4
 -0.006416037653337613    4    2    6    6
 -0.02171832991096397    4    2    7    1
 -0.0001638812047695722    4    2    7    3
 0.08160103075104096    4    2    7    5
 0.01543335960972698    4    2    7    7
 -0.02033870323993325    4    2    8    2
 -0.01063933230960605    4    2    8    4
 -0.06758823107280383    4    2    8    6
 0.08460192196458861    4    2    8    8
 -1.10848830114918e-15    4    3    1    1
 -0.09219446359362791    4    3    2    1
 -0.08929893682906853    4    3    3    2
 -0.009747907913098344    4    3    4    1
 0.1101897201035431    4    3    4    3
 -0.006109368832648883    4    3    5    2
 0.07431689295851231    4    3    5    4
 0.01525071222447963    4    3    6    1
 -0.001618104299622222    4    3    6    3
 0.1048594042007572    4    3    6    5
 -0.0003468495106461363    4    3    7    2
 0.001026024965555438    4    3    7    4
 -0.09267196830923465    4    3    7    6
 -0.01717027213147523    4    3    8    1
 0.01019001929831586    4    3    8    3
 -0.01004638133302189    4    3    8    5
 -0.1000964484193152    4    3    8    7
 0.3174944778613164    4    4    1    1
 0.2991617116459523    4    4    2    2
 -0.01974064649916499    4    4    3    1
 0.2952893195540534    4    4    3    3
 0.02525578093189797    4    4    4    2
 0.3179904404909178    4    4    4    4
 -0.00342071723224583    4    4    5    1
 -0.008209307452447606    4    4    5    3
 0.3125777187872322    4    4    5    5
 -0.009341990098456605    4    4    6    2
 -0.0173079839566213    4    4    6    4
 0.3052011389833167    4    4    6    6
 -0.014180875769342    4    4    7    1
 -0.001850314249025781    4    4    7    3
 0.02734547557532422    4    4    7    5
 0.3174976234512071    4    4    7    7
 -0.009457542300655177    4    4    8    2
 -0.004336723521982595    4    4    8    4
 -0.02197555943861437    4    4    8    6
 0.3433586005772224    4    4    8    8
 0.003890875696227897    5    1    1    1
 -0.03722920183189456    5    1    2    2
 -0.03759559984264667    5    1    3    1
 0.01602874165277817    5    1    3    3
 -0.01479660967840976    5    1    4    2
 -0.003420717232245804    5    1    4    4
 0.06346941754343619    5    1    5    1
 -0.006577662747035979    5    1    5    3
 -0.003355454742328909    5    1    5    5
 -0.03974363641353696    5    1    6    2
 -0.006768225411280009    5    1    6    4
 0.008862424851493033    5    1    6    6
 0.02548256684462248    5    1    7    1
 -0.03978724388375501    5    1    7    3
 -0.007270638697225986    5    1    7    5
 -0.03563392161125239    5    1    7    7
 0.02416738720835741    5    1    8    2
 0.05886294599317772    5    1    8    4
 -0.03727852146450039    5    1    8    6
 0.003679217178800187    5    1    8    8
 -0.05174454563523456    5    2    2    1
 -0.006812370871680021    5    2    3    2
 -0.04235254330408224    5    2    4    1
 -0.006109368832648877    5    2    4    3
 0.06564389965049423    5    2    5    2
 0.01137534324671695    5    2    5    4
 -0.0240045857016372    5    2    6    1
 -0.04739092862906956    5    2    6    3
 0.002749781975534181    5    2    6    5
 -0.002028519600017274    5    2    7    2
 0.06089999743332094    5    2    7    4
 -0.009908013357936061    5    2    7    6
 0.02040743071452167    5    2    8    1
 -0.02040781827369249    5    2    8    3
 -0.0435592930602546    5    2    8    5
 -0.05512869153668251    5    2    8    7
 -0.07434801414710533    5    3    1    1
 -0.01499664100213259    5    3    2    2
 0.05641280519095481    5    3    3    1
 -0.007493133009665557    5    3    3    3
 -0.05687660463088978    5    3    4    2
 -0.008209307452447589    5    3    4    4
 -0.00657766274703596    5    3    5    1
 0.0746403044485264    5    3    5    3
 -0.01726294532091014    5    3    5    5
 -0.01954585390981655    5    3    6    2
 0.06958061953123607    5    3    6    4
 -0.01248441023853922    5    3    6    6
 -0.02080477455627485    5    3    7    1
 -0.01459654267303495    5    3    7    3
 -0.05918163930159978    5    3    7    5
 -0.01921086940015644    5    3    7    7
 -0.01748174286329561    5    3    8    2
 -0.006622443443183709    5    3    8    4
 0.06017917852102828    5    3    8    6
 -0.08183764070437513    5    3    8    8
 -0.07448342145223692    5    4    2    1
 -0.07281976301298612    5    4    3    2
 -0.005833794842860925    5    4    4    1
 0.07431689295851228    5    4    4    3
 0.01137534324671694    5    4    5    2
 0.08958046828038319    5    4    5    4
 -0.004636472114670305    5    4    6    1
 0.02456843934266519    5    4    6    3
 0.07545171817296827    5    4    6    5
 0.02769176452187111    5    4    7    2
 0.0127919313556912    5    4    7    4
 -0.07628235659444113    5    4    7    6
 0.03212799979008063    5    4    8    1
 -0.005172568108815253    5    4    8    3
 -0.0064113689056661    5    4    8    5
 -0.08151389358805225    5    4    8    7
 0.3215704683220267    5    5    1    1
 0.3025634122723685    5    5    2    2
 -0.02009129080536806    5    5    3    1
 0.2978215703472982    5    5    3    3
 0.02537610127150836    5    5    4    2
 0.3125777187872322    5    5    4    4
 -0.003355454742328911    5    5    5    1
 -0.01726294532091014    5    5    5    3
 0.3237373774704471    5    5    5    5
 -0.001186833164321194    5    5    6    2
 -0.01360043020986031    5    5    6    4
 0.3108215700111734    5    5    6    6
 -0.007520912278380249    5    5    7    1
 -0.005053199516740306    5    5    7    3
 0.02863480593192595    5    5    7    5
 0.323276671727155    5    5    7    7
 -0.01079286021170061    5    5    8    2
 -0.00461606280604886    5    5    8    4
 -0.02275893004965866    5    5    8    6
 0.3500450832315031    5    5    8    8
 0.002974896189897195    6    1    2    1
 0.02815328004280932    6    1    3    2
 -0.02656353011343051    6    1    4    1
 0.01525071222447963    6    1    4    3
 -0.02400458570163719    6    1    5    2
 -0.004636472114670302    6    1    5    4
 0.04463298128952019    6    1    6    1
 0.005930958796015234    6    1    6    3
 0.008146410968716041    6    1    6    5
 0.02566314771696102    6    1    7    2
 -0.01791700395908279    6    1    7    4
 0.02601625722529591    6    1    7    6
 -0.02056642869824812    6    1    8    1
 0.0402888385460678    6    1    8    3
 -0.02436559391300808    6    1    8    5
 0.003469277151610719    6    1    8    7
 0.005201431595257773    6    2    1    1
 0.03916537208826075    6    2    2    2
 0.03207328285390885    6    2    3    1
 0.005877584447796695    6    2    3    3
 -0.0009315177863644937    6    2    4    2
 -0.009341990098456618    6    2    4    4
 -0.03974363641353697    6    2    5    1
 -0.01954585390981655    6    2    5    3
 -0.001186833164321197    6    2    5    5
 0.05596599568604857    6    2    6    2
 -0.0130362957639665    6    2    6    4
 0.009336606686913726    6    2    6    6
 0.01431677855412424    6    2    7    1
 0.05104053017495509    6    2    7    3
 -0.003118464587035023    6    2    7    5
 0.03934281828745755    6    2    7    7
 0.01143017699894073    6    2    8    2
 -0.03917468004632275    6    2    8    4
 0.03218861630840229    6    2    8    6
 0.00611103884846266    6    2    8    8
 0.04371406632977299    6    3    2    1
 -0.001447038893572893    6    3    3    2
 0.04369999672526755    6    3    4    1
 -0.001618104299622213    6    3    4    3
 -0.04739092862906957    6    3    5    2
 0.02456843934266519    6    3    5    4
 0.005930958796015239    6    3    6    1
 0.07291943353770959    6    3    6    3
 -0.004622117111788653    6    3    6    5
 0.02991985935470044    6    3    7    2
 -0.04764258991312954    6    3    7    4
 0.001285349342260274    6    3    7    6
 0.02634548660908666    6    3    8    1
 0.006277833576495176    6    3    8    3
 0.04483037906287135    6    3    8    5
 0.04739596083267579    6    3    8    7
 -0.07689487200458164    6    4    1    1
 -0.0161258342834072    6    4    2    2
 0.05819894935423991    6    4    3    1
 -0.009280155852807562    6    4    3    3
 -0.05896902700886358    6    4    4    2
 -0.01730798395662128    6    4    4    4
 -0.00676822541128    6    4    5    1
 0.06958061953123612    6    4    5    3
 -0.01360043020986034    6    4    5    5
 -0.01303629576396653    6    4    6    2
 0.07501133002160298    6    4    6    4
 -0.01342245159364497    6    4    6    6
 -0.01563248944207074    6    4    7    1
 -0.0172566140905961    6    4    7    3
 -0.06066217226667293    6    4    7    5
 -0.02067441091830608    6    4    7    7
 -0.01879952149581443    6    4    8    2
 -0.0073055874870635    6    4    8    4
 0.06247468668706985    6    4    8    6
 -0.08637299036698511    6    4    8    8
 -0.09523614900298885    6    5    2    1
 -0.09124642274875733    6    5    3    2
 -0.01022576867489184    6    5    4    1
 0.1048594042007572    6    5    4    3
 0.002749781975534134    6    5    5    2
 0.07545171817296824    6    5    5    4
 0.008146410968716079    6    5    6    1
 -0.00462211711178865    6    5    6    3
 0.1124712191579555    6    5    6    5
 -0.002274487330007723    6    5    7    2
 -0.0003854783523560522    6    5    7    4
 -0.09646650314049544    6    5    7    6
 -0.01526826028562705    6    5    8    1
 0.01102499622384149    6    5    8    3
 -0.01143749975685842    6    5    8    5
 -0.1051865533809677    6    5    8    7
 0.3061794232829    6    6    1    1
 0.3064206498898509    6    6    2    2
 -0.001179868529573073    6    6    3    1
 0.3164120557995789    6    6    3    3
 -0.006416037653337696    6    6    4    2
 0.3052011389833168    6    6    4    4
 0.00886242485149309    6    6    5    1
 -0.0124844102385392    6    6    5    3
 0.3108215700111735    6    6    5    5
 0.0093366066869137    6    6    6    2
 -0.01342245159364495    6    6    6    4
 0.3338087051113193    6    6    6    6
 0.01977460638263587    6    6    7    1
 0.009718866650592222    6    6    7    3
 -0.008787788360034961    6    6    7    5
 0.3282107914843099    6    6    7    7
 0.02085303413180931    6    6    8    2
 0.01164204420754553    6    6    8    4
 -0.002379384803869523    6    6    8    6
 0.335690099450537    6    6    8    8
 0.002667173893774382    7    1    1    1
 -6.782133604623438e-05    7    1    2    2
 -0.001280307351915266    7    1    3    1
 0.02225045911343843    7    1    3    3
 -0.02171832991096397    7    1    4    2
 -0.01418087576934201    7    1    4    4
 0.02548256684462248    7    1    5    1
 -0.02080477455627485    7    1    5    3
 -0.007520912278380222    7    1    5    5
 0.01431677855412423    7    1    6    2
 -0.01563248944207071    7    1    6    4
 0.0197746063826358    7    1    6    6
 0.0409239860621842    7    1    7    1
 0.0101070686126435    7    1    7    3
 -0.01824841797727699    7    1    7    5
 0.0002355174059414543    7    1    7    7
 0.03779349016366373    7    1    8    2
 0.0234645736305239    7    1    8    4
 -0.001540566308341938    7    1    8    6
 0.002904688977815371    7    1    8    8
 -0.001235730136786954    7    2    2    1
 0.02715635318070107    7    2    3    2
 -0.02815349490513309    7    2    4    1
 -0.0003468495106461408    7    2    4    3
 -0.002028519600017268    7    2    5    2
 0.0276917645218711    7    2    5    4
 0.02566314771696102    7    2    6    1
 0.02991985935470042    7    2    6    3
 -0.002274487330007721    7    2    6    5
 0.05606898352040245    7    2    7    2
 -0.000135382152286501    7    2    7    4
 0.0255415495499703    7    2    7    6
 0.02992563328161791    7    2    8    1
 0.02502186010987519    7    2    8    3
 -0.02724464634598884    7    2    8    5
 -0.0009966599751359394    7    2    8    7
 0.006624963123186882    7    3    1    1
 0.04017828471921902    7    3    2    2
 0.03137588848272813    7    3    3    1
 0.007694112671248724    7    3    3    3
 -0.0001638812047695488    7    3    4    2
 -0.001850314249025826    7    3    4    4
 -0.03978724388375507    7    3    5    1
 -0.01459654267303498    7    3    5    3
 -0.005053199516740271    7    3    5    5
 0.05104053017495513    7    3    6    2
 -0.01725661409059608    7    3    6    4
 0.009718866650592279    7    3    6    6
 0.0101070686126435    7    3    7    1
 0.05448857635844626    7    3    7    3
 -0.002686385524509631    7    3    7    5
 0.04182962695420471    7    3    7    7
 0.01285006675836148    7    3    8    2
 -0.03999648957680422    7    3    8    4
 0.03282441095023209    7    3    8    6
 0.008238205877387689    7    3    8    8
 -0.0532581142714238    7    4    2    1
 -0.006703918647588967    7    4    3    2
 -0.04483395810359535    7    4    4    1
 0.001026024965555399    7    4    4    3
 0.06089999743332099    7    4    5    2
 0.0127919313556912    7    4    5    4
 -0.01791700395908282    7    4    6    1
 -0.04764258991312954    7    4    6    3
 -0.0003854783523560244    7    4    6    5
 -0.000135382152286488    7    4    7    2
 0.06585042792261667    7    4    7    4
 -0.01029616770992134    7    4    7    6
 0.01900636401629375    7    4    8    1
 -0.02147949065554438    7    4    8    3
 -0.04623491641720332    7    4    8    5
 -0.05938831669463143    7    4    8    7
 0.08093912016067414    7    5    1    1
 0.01149396611230396    7    5    2    2
 -0.06730161194607864    7    5    3    1
 -0.009117377335470354    7    5    3    3
 0.08160103075104104    7    5    4    2
 0.02734547557532418    7    5    4    4
 -0.007270638697226052    7    5    5    1
 -0.05918163930159982    7    5    5    3
 0.0286348059319259    7    5    5    5
 -0.003118464587034993    7    5    6    2
 -0.060662172266673    7    5    6    4
 -0.008787788360034961    7    5    6    6
 -0.01824841797727705    7    5    7    1
 -0.002686385524509628    7    5    7    3
 0.08895545915902364    7    5    7    5
 0.01631919356377493    7    5    7    7
 -0.01914767405216444    7    5    8    2
 -0.01062442634036531    7    5    8    4
 -0.07325083845639155    7    5    8    6
 0.09206005894086289    7    5    8    8
 1.077263278581597e-15    7    6    1    1
 0.08599567951036785    7    6    2    1
 0.1119817871285604    7    6    3    2
 -0.02039063733171287    7    6    4    1
 -0.09267196830923467    7    6    4    3
 -0.009908013357936058    7    6    5    2
 -0.07628235659444119    7    6    5    4
 0.02601625722529601    7    6    6    1
 0.001285349342260263    7    6    6    3
 -0.09646650314049551    7    6    6    5
 0.02554154954997035    7    6    7    2
 -0.01029616770992136    7    6    7    4
 0.1220068376424689    7    6    7    6
 -0.001092005122187551    7    6    8    1
 0.02793323805647863    7    6    8    3
 -0.02424489262452514    7    6    8    5
 0.09657596132850904    7    6    8    7
 0.3225353131684576    7    7    1    1
 0.3396208110312242    7    7    2    2
 0.01359428193967594    7    7    3    1
 0.3117681406263421    7    7    3    3
 0.01543335960972699    7    7    4    2
 0.3174976234512073    7    7    4    4
 -0.03563392161125258    7    7    5    1
 -0.01921086940015643    7    7    5    3
 0.3232766717271552    7    7    5    5
 0.03934281828745767    7    7    6    2
 -0.02067441091830612    7    7    6    4
 0.32821079148431    7    7    6    6
 0.0002355174059413987    7    7    7    1
 0.04182962695420487    7    7    7    3
 0.0163191935637751    7    7    7    5
 0.3709231007159722    7    7    7    7
 0.0009778661905347954    7    7    8    2
 -0.03985550343665119    7    7    8    4
 0.01735395007729829    7    7    8    6
 0.3574611768324225    7    7    8    8
 -0.0009243703453183351    8    1    2    1
 -0.0008170031280246243    8    1    3    2
 0.001509262734822658    8    1    4    1
 -0.01717027213147524    8    1    4    3
 0.02040743071452169    8    1    5    2
 0.03212799979008064    8    1    5    4
 -0.02056642869824814    8    1    6    1
 0.02634548660908667    8    1    6    3
 -0.01526826028562702    8    1    6    5
 0.02992563328161791    8    1    7    2
 0.01900636401629372    8    1    7    4
 -0.001092005122187534    8    1    7    6
 0.05306504253486071    8    1    8    1
 -0.01932303533274308    8    1    8    3
 0.001358398288693484    8    1    8    5
 -0.001118325658904838    8    1    8    7
 0.003259294716182596    8    2    1    1
 0.0008416569953566728    8    2    2    2
 -0.001243153876571396    8    2    3    1
 0.02225691657236468    8    2    3    3
 -0.02033870323993326    8    2    4    2
 -0.009457542300655196    8    2    4    4
 0.02416738720835742    8    2    5    1
 -0.01748174286329562    8    2    5    3
 -0.01079286021170053    8    2    5    5
 0.01143017699894074    8    2    6    2
 -0.01879952149581441    8    2    6    4
 0.02085303413180926    8    2    6    6
 0.03779349016366375    8    2    7    1
 0.01285006675836149    8    2    7    3
 -0.0191476740521644    8    2    7    5
 0.0009778661905348839    8    2    7    7
 0.03902398668641941    8    2    8    2
 0.02380706850120509    8    2    8    4
 -0.00149487435382537    8    2    8    6
 0.003922231448494082    8    2    8    8
 0.004038644591538265    8    3    2    1
 0.02762561424019742    8    3    3    2
 -0.02449451241825078    8    3    4    1
 0.01019001929831588    8    3    4    3
 -0.02040781827369254    8    3    5    2
 -0.005172568108815266    8    3    5    4
 0.04028883854606786    8    3    6    1
 0.006277833576495177    8    3    6    3
 0.01102499622384145    8    3    6    5
 0.02502186010987521    8    3    7    2
 -0.02147949065554438    8    3    7    4
 0.02793323805647857    8    3    7    6
 -0.01932303533274309    8    3    8    1
 0.04203231718208127    8    3    8    3
 -0.02491302824185763    8    3    8    5
 0.005081915540519287    8    3    8    7
 0.002977681073939271    8    4    1    1
 -0.03685664206883338    8    4    2    2
 -0.03661973803322331    8    4    3    1
 0.0109514142283656    8    4    3    3
 -0.0106393323096061    8    4    4    2
 -0.004336723521982576    8    4    4    4
 0.05886294599317782    8    4    5    1
 -0.006622443443183685    8    4    5    3
 -0.004616062806048784    8    4    5    5
 -0.03917468004632282    8    4    6    2
 -0.007305587487063475    8    4    6    4
 0.01164204420754546    8    4    6    6
 0.02346457363052395    8    4    7    1
 -0.03999648957680425    8    4    7    3
 -0.01062442634036533    8    4    7    5
 -0.03985550343665095    8    4    7    7
 0.02380706850120514    8    4    8    2
 0.06267655506312379    8    4    8    4
 -0.04025686646966539    8    4    8    6
 0.003060458728385032    8    4    8    8
 0.05106990181782987    8    5    2    1
 -0.02374471086780002    8    5    3    2
 0.07399502880957348    8    5    4    1
 -0.0100463813330219    8    5    4    3
 -0.04355929306025461    8    5    5    2
 -0.006411368905666072    8    5    5    4
 -0.02436559391300818    8    5    6    1
 0.04483037906287141    8    5    6    3
 -0.01143749975685839    8    5    6    5
 -0.02724464634598892    8    5    7    2
 -0.04623491641720331    8    5    7    4
 -0.02424489262452517    8    5    7    6
 0.001358398288693496    8    5    8    1
 -0.02491302824185771    8    5    8    3
 0.08076584174486622    8    5    8    5
 0.05827244648852593    8    5    8    7
 -0.07700497350018679    8    6    1    1
 1.07552855510562e-15    8    6    2    1
 0.01634767847087016    8    6    2    2
 0.08911325905835704    8    6    3    1
 0.0002348385631721073    8    6    3    3
 -0.06758823107280384    8    6    4    2
 -0.02197555943861428    8    6    4    4
 -0.0372785214645005    8    6    5    1
 0.0601791785210283    8    6    5    3
 -0.02275893004965875    8    6    5    5
 0.03218861630840238    8    6    6    2
 0.06247468668706983    8    6    6    4
 -0.002379384803869466    8    6    6    6
 -0.001540566308341948    8    6    7    1
 0.03282441095023221    8    6    7    3
 -0.07325083845639153    8    6    7    5
 0.01735395007729827    8    6    7    7
 -0.001494874353825382    8    6    8    2
 -0.04025686646966547    8    6    8    4
 0.1012860645052663    8    6    8    6
 -0.08908694706088738    8    6    8    8
 1.490561146733071e-15    8    7    1    1
 0.1354069734259122    8    7    2    1
 0.08726034486763698    8    7    3    2
 0.05298564742257043    8    7    4    1
 -0.1000964484193152    8    7    4    3
 -0.05512869153668255    8    7    5    2
 -0.08151389358805228    8    7    5    4
 0.003469277151610727    8    7    6    1
 0.04739596083267588    8    7    6    3
 -0.1051865533809677    8    7    6    5
 -0.0009966599751359429    8    7    7    2
 -0.05938831669463146    8    7    7    4
 0.09657596132850892    8    7    7    6
 -0.001118325658904869    8    7    8    1
 0.005081915540519268    8    7    8    3
 0.05827244648852607    8    7    8    5
 0.1568976063616374    8    7    8    7
 1.00895854171501e-15    8    7    8    8
 0.4044233451490638    8    8    1    1
 0.3254369198479696    8    8    2    2
 -0.07831915153793875    8    8    3    1
 0.3150948068163651    8    8    3    3
 0.0846019219645886    8    8    4    2
 0.3433586005772226    8    8    4    4
 0.003679217178800155    8    8    5    1
 -0.08183764070437517    8    8    5    3
 0.3500450832315033    8    8    5    5
 0.006111038848462702    8    8    6    2
 -0.08637299036698511    8    8    6    4
 0.3356900994505371    8    8    6    6
 0.002904688977815358    8    8    7    1
 0.008238205877387661    8    8    7    3
 0.09206005894086305    8    8    7    5
 0.3574611768324223    8    8    7    7
 0.003922231448494039    8    8    8    2
 0.003060458728385008    8    8    8    4
 -0.08908694706088757    8    8    8    6
 0.4571216167167121    8    8    8    8
 -2.596564468342772    1    1  0  0
 1.865219984295888e-15    2    1  0  0
 -2.399365560916459    2    2  0  0
 0.1424861803955349    3    1  0  0
 -2.243142834840991    3    3  0  0
 -0.1972834871598152    4    2  0  0
 -2.158809817255034    4    4  0  0
 0.04418594869156806    5    1  0  0
 0.2325100327505712    5    3  0  0
 -1.994893204681499    5    5  0  0
 -0.1000806345131301    6    2  0  0
 0.1927964960051053    6    4  0  0
 -1.740632839812299    6    6  0  0
 -0.03336452176224047    7    1  0  0
 -0.07069787434416164    7    3  0  0
 -0.1996729158066857    7    5  0  0
 -1.549020898433734    7    7  0  0
 -0.0168970644849751    8    2  0  0
 0.04155238929425725    8    4  0  0
 0.1546320108630275    8    6  0  0
 -1.461392065158685    8    8  0  0
 7.272406812929145  0  0  0  0
