 &FCI NORB=2,NELEC=0,MS2=0,
  ORBSYM=1,1,
  ISYM=1
 &END
 6.7431654384585105E-01    1    1    1    1
 1.8161004671854125E-01    2    1    2    1
 6.6403522993595110E-01    2    2    1    1
 4.7184478546569153E-16    2    2    2    1
 6.9885594230152370E-01    2    2    2    2
-1.2563754004756116E+00    1    1    0    0
-1.3885564988812074E-16    2    1    0    0
-4.8058819954360232E-01    2    2    0    0
 7.1317683128999998E-01    0    0    0    0
