 &FCI NORB=  28,NELEC= 6,MS2=0,
  ORBSYM=1,1,1,1,1,1,1,1,1,1,1,1,1,1,1,1,1,1,1,1,1,1,1,1,1,1,1,1,
  ISYM=1,
 &END
 0.9342745683766991    1    1    1    1
 -2.123744246070242e-12    1    1    2    1
 0.9347521042646617    1    1    2    2
 -0.07194980103650728    1    1    3    1
 1.137542144453078e-13    1    1    3    2
 0.2896973606111045    1    1    3    3
 1.415165760282527e-13    1    1    4    1
 -0.03254154828099264    1    1    4    2
 -1.292419207276752e-13    1    1    4    3
 0.1642240061625269    1    1    4    4
 0.1734894229339908    1    1    5    5
 1.144549757670165e-16    1    1    6    1
 -3.542289790830529e-16    1    1    6    3
 1.922807107887743e-16    1    1    6    4
 -3.227182969905346e-16    1    1    6    5
 0.1734894229339904    1    1    6    6
 0.01177474287839565    1    1    7    1
 -2.337843498100557e-14    1    1    7    2
 -0.04308210398601022    1    1    7    3
 -8.968841885301066e-14    1    1    7    4
 0.1542721734212074    1    1    7    7
 5.469890550362308e-15    1    1    8    5
 -7.035475605030274e-14    1    1    8    6
 0.1317917096549523    1    1    8    8
 -7.026638464185543e-14    1    1    9    5
 -5.492304226695378e-15    1    1    9    6
 0.1317917096549523    1    1    9    9
 -1.987384715705328e-13    1    1   10    1
 0.04663690187160069    1    1   10    2
 1.392244605277513e-13    1    1   10    3
 -0.06207857352913898    1    1   10    4
 2.05919753230849e-16    1    1   10    6
 2.593493605790944e-15    1    1   10    7
 0.1641476110570564    1    1   10   10
 -0.01938966733299612    1    1   11    1
 4.993716963482809e-14    1    1   11    2
 0.06640819230421498    1    1   11    3
 1.790727008161104e-14    1    1   11    4
 -1.838157979859189e-16    1    1   11    5
 -2.285671702332418e-16    1    1   11    6
 -0.05232418282286391    1    1   11    7
 1.312982809694538e-16    1    1   11    8
 -2.980874089294211e-14    1    1   11   10
 0.2132408278551317    1    1   11   11
 1.102708293996755e-16    1    1   12    1
 -2.751746949733065e-16    1    1   12    3
 -0.0452105861904679    1    1   12    5
 0.05205245679079778    1    1   12    6
 -1.969590341571376e-16    1    1   12    7
 -2.589988907960793e-14    1    1   12    8
 1.921304738863076e-14    1    1   12    9
 2.703679540193881e-16    1    1   12   10
 2.762043856684968e-16    1    1   12   11
 0.2462640050238449    1    1   12   12
 1.311212264786212e-16    1    1   13    4
 0.05205245679079767    1    1   13    5
 0.04521058619046758    1    1   13    6
 -3.04432817356445e-16    1    1   13    7
 -1.897066049700479e-14    1    1   13    8
 -2.637751281199823e-14    1    1   13    9
 1.373849306938755e-16    1    1   13   10
 1.039152771831574e-16    1    1   13   11
 3.907213660214019e-16    1    1   13   12
 0.2462640050238457    1    1   13   13
 -0.03280659945273784    1    1   14    1
 3.223666098440965e-14    1    1   14    2
 0.02451108650979304    1    1   14    3
 -1.23933387711013e-13    1    1   14    4
 3.563339933350434e-16    1    1   14    6
 0.04191459322191083    1    1   14    7
 1.536412917735648e-13    1    1   14   10
 -0.03113797789358303    1    1   14   11
 1.221187043954201e-16    1    1   14   12
 0.228813805739799    1    1   14   14
 5.824909373124722e-14    1    1   15    5
 1.012847965272242e-13    1    1   15    6
 -0.03530317424039293    1    1   15    8
 -0.02418110018595643    1    1   15    9
 8.101318478106159e-14    1    1   15   12
 2.332809582774417e-13    1    1   15   13
 0.2642413195307595    1    1   15   15
 -1.456946374089882e-16    1    1   16    3
 1.005123276196061e-13    1    1   16    5
 -5.877358511139256e-14    1    1   16    6
 1.817538122546625e-16    1    1   16    7
 0.02418110018595638    1    1   16    8
 -0.03530317424039295    1    1   16    9
 1.268638460196471e-16    1    1   16   10
 -2.333678440994918e-13    1    1   16   12
 8.119095377625946e-14    1    1   16   13
 -2.052390654538956e-16    1    1   16   15
 0.2642413195307595    1    1   16   16
 -9.934942472627854e-14    1    1   17    1
 0.02586245605481349    1    1   17    2
 4.704137371454075e-14    1    1   17    3
 -0.03631982711179551    1    1   17    4
 5.006764458682914e-14    1    1   17    7
 -1.058583587466872e-16    1    1   17    8
 0.04809667471405563    1    1   17   10
 -5.905145592314172e-14    1    1   17   11
 2.395830582142763e-13    1    1   17   14
 0.2195967190238866    1    1   17   17
 1.158434511834632e-16    1    1   18   12
 0.2444144563110021    1    1   18   18
 0.244414456311002    1    1   19   19
 -1.991479187451342e-13    1    1   20    1
 0.04397938314075416    1    1   20    2
 1.511366042445185e-13    1    1   20    3
 -0.0154607387956309    1    1   20    4
 -9.091532201694491e-14    1    1   20    7
 0.04285146789216861    1    1   20   10
 9.724184501913186e-14    1    1   20   11
 1.528567699959353e-16    1    1   20   13
 -4.257115574908252e-14    1    1   20   14
 -0.01793956925790317    1    1   20   17
 0.2565016302943057    1    1   20   20
 -3.825702505414572e-16    1    1   21    2
 -1.182635908518469e-16    1    1   21    3
 2.072419170615284e-16    1    1   21    4
 0.002830503479490579    1    1   21    5
 0.00750790682389396    1    1   21    6
 4.951420855372609e-14    1    1   21    8
 2.33712200122022e-14    1    1   21    9
 -2.155529899318845e-16    1    1   21   10
 0.009404551914694321    1    1   21   12
 0.01741718538940408    1    1   21   13
 -1.251573309923584e-13    1    1   21   15
 2.014995053549833e-14    1    1   21   16
 0.2543170128626173    1    1   21   21
 0.007507906823894303    1    1   22    5
 -0.002830503479491073    1    1   22    6
 -2.326143715859546e-14    1    1   22    8
 4.927474071513211e-14    1    1   22    9
 -0.01741718538940398    1    1   22   12
 0.009404551914694156    1    1   22   13
 -2.01913225945485e-14    1    1   22   15
 -1.252611825506243e-13    1    1   22   16
 0.2543170128626177    1    1   22   22
 1.79855823181707e-13    1    1   23   18
 0.2364245520392095    1    1   23   23
 -1.796012131740693e-13    1    1   24   19
 0.2364245520392095    1    1   24   24
 -0.03599786517363865    1    1   25    1
 6.75846651378694e-14    1    1   25    2
 0.03727573974160975    1    1   25    3
 -1.092941742609965e-14    1    1   25    4
 -2.146073354167284e-16    1    1   25    6
 -0.01743891234465121    1    1   25    7
 1.448649160235589e-14    1    1   25   10
 0.06514808804535346    1    1   25   11
 -2.418791004011442e-16    1    1   25   12
 1.294442656942208e-16    1    1   25   13
 -0.01051545022346828    1    1   25   14
 -2.128371283022318e-16    1    1   25   16
 -1.347739573510021e-14    1    1   25   17
 -1.041468457448834e-13    1    1   25   20
 -1.363819171224088e-16    1    1   25   21
 0.2781140597329509    1    1   25   25
 1.863097433149425e-14    1    1   26    5
 2.899408605449126e-14    1    1   26    6
 -0.001019144275345619    1    1   26    8
 -0.0007736060855917364    1    1   26    9
 2.848330532479151e-14    1    1   26   12
 9.740280799721915e-14    1    1   26   13
 0.04661625574557748    1    1   26   15
 0.002273219296674837    1    1   26   16
 1.469558025131686e-13    1    1   26   21
 3.142449969874385e-14    1    1   26   22
 0.2636077625224433    1    1   26   26
 2.899915777627547e-14    1    1   27    5
 -1.865038275220302e-14    1    1   27    6
 0.0007736060855916457    1    1   27    8
 -0.001019144275345709    1    1   27    9
 1.202583695280702e-16    1    1   27   11
 -9.73681341533638e-14    1    1   27   12
 2.916217786853529e-14    1    1   27   13
 -1.170040250332405e-16    1    1   27   14
 -0.002273219296674936    1    1   27   15
 0.04661625574557746    1    1   27   16
 -3.132493905409888e-14    1    1   27   21
 1.471275374297873e-13    1    1   27   22
 2.223568024568514e-16    1    1   27   26
 0.2636077625224429    1    1   27   27
 -2.730836976970298e-13    1    1   28    1
 0.06766145705915748    1    1   28    2
 -2.185530185638325e-14    1    1   28    3
 -0.01729025963049975    1    1   28    4
 5.372303994301174e-14    1    1   28    7
 0.01713172402702344    1    1   28   10
 -1.532931999700334e-13    1    1   28   11
 1.397126783343474e-13    1    1   28   14
 0.08266203347646729    1    1   28   17
 -0.02379514082483236    1    1   28   20
 1.258044829042061e-16    1    1   28   21
 -9.202273774533493e-14    1    1   28   25
 0.4470089398474575    1    1   28   28
 -2.123772102442274e-12    2    1    1    1
 0.7143488746747138    2    1    2    1
 2.124409865461533e-12    2    1    2    2
 1.107531100138716e-13    2    1    3    1
 -0.07448063636092375    2    1    3    2
 6.762427100773333e-16    2    1    3    3
 -0.0307317469938647    2    1    4    1
 -4.353467548223387e-14    2    1    4    2
 0.04285607323500557    2    1    4    3
 -1.454451252638221e-15    2    1    4    4
 1.33541340660002e-16    2    1    6    2
 1.726131122892027e-16    2    1    6    4
 -2.003850560558557e-14    2    1    7    1
 0.01465010087076665    2    1    7    2
 -1.920398155805179e-15    2    1    7    3
 0.0289062385757111    2    1    7    4
 -9.138455253699437e-16    2    1    7    7
 -0.001854143087123384    2    1    8    5
 0.02346708557362458    2    1    8    6
 -1.148322418454292e-16    2    1    8    7
 -2.700968892336747e-16    2    1    8    8
 0.02346708557362462    2    1    9    5
 0.001854143087123351    2    1    9    6
 -2.181022143455063e-16    2    1    9    9
 0.04491722598741416    2    1   10    1
 6.950503363688904e-14    2    1   10    2
 -0.0477966087008672    2    1   10    3
 -1.877769816256126e-15    2    1   10    4
 -0.0002744206434005313    2    1   10    7
 3.50070668833191e-15    2    1   10   10
 4.203476807503997e-14    2    1   11    1
 -0.02534712548368653    2    1   11    2
 -2.351630327546487e-15    2    1   11    3
 -0.007142754711092358    2    1   11    4
 8.156210891398134e-16    2    1   11    7
 0.01100105876220788    2    1   11   10
 1.889288288283122e-15    2    1   11   11
 1.260079061550019e-16    2    1   12    2
 0.008548779959131109    2    1   12    8
 -0.006316219172592115    2    1   12    9
 1.959966828204166e-16    2    1   12   11
 -4.04713484280614e-16    2    1   13    5
 4.725212373157642e-16    2    1   13    6
 0.006316219172592123    2    1   13    8
 0.008548779959131119    2    1   13    9
 1.207943725112907e-15    2    1   13   12
 -5.591605126605093e-16    2    1   13   13
 3.954941853260474e-14    2    1   14    1
 -0.02683967883175446    2    1   14    2
 -6.228684746520383e-16    2    1   14    3
 0.04021328533833105    2    1   14    4
 -4.130563634602178e-15    2    1   14    7
 1.102487275424112e-16    2    1   14    8
 -0.05202572046028874    2    1   14   10
 -2.274959167322224e-15    2    1   14   11
 -1.534197375703719e-16    2    1   14   12
 -9.93311417881906e-15    2    1   14   14
 -0.01955683588708176    2    1   15    5
 -0.0340216070220393    2    1   15    6
 1.33133031519505e-16    2    1   15    7
 4.58855955053171e-16    2    1   15    8
 2.25352827365273e-16    2    1   15    9
 -0.0272014762886354    2    1   15   12
 -0.07841170774727003    2    1   15   13
 -1.200318823880801e-16    2    1   15   14
 1.172650659310171e-16    2    1   16    4
 -0.03402160702203968    2    1   16    5
 0.019556835887082    2    1   16    6
 -2.000347607437414e-16    2    1   16    7
 -2.983017349262807e-16    2    1   16    8
 2.339904583405367e-16    2    1   16    9
 4.008260714739357e-16    2    1   16   11
 0.07841170774727016    2    1   16   12
 -0.02720147628863524    2    1   16   13
 1.126774461994657e-15    2    1   16   15
 6.977016639529134e-16    2    1   16   16
 0.01955390469877136    2    1   17    1
 2.493156968957798e-14    2    1   17    2
 -0.01665042374456305    2    1   17    3
 -3.01283625235888e-16    2    1   17    4
 -1.603607667034391e-16    2    1   17    6
 -0.01574185401735177    2    1   17    7
 2.96355976356162e-15    2    1   17   10
 0.02025886384534826    2    1   17   11
 1.078866590314749e-16    2    1   17   13
 -0.07980714317284492    2    1   17   14
 -2.934467387139863e-16    2    1   17   16
 6.237632190302045e-15    2    1   17   17
 1.956670542489162e-16    2    1   18   15
 -1.730711706936328e-16    2    1   18   16
 0.04559121197963106    2    1   20    1
 7.061548426596821e-14    2    1   20    2
 -0.05065880287246075    2    1   20    3
 -1.841986665763327e-16    2    1   20    4
 2.476476679921409e-16    2    1   20    6
 0.03068986802509831    2    1   20    7
 -1.58722971230198e-16    2    1   20    8
 1.637863400103049e-15    2    1   20   10
 -0.03237847642618653    2    1   20   11
 1.837603942796132e-16    2    1   20   12
 0.0144555764661592    2    1   20   14
 2.953983727331953e-16    2    1   20   15
 -8.939603344750683e-16    2    1   20   17
 -8.794542102733592e-16    2    1   20   20
 -3.895507370216299e-16    2    1   21    1
 4.337944884214808e-16    2    1   21    3
 1.194098351508209e-16    2    1   21    5
 2.428984762664344e-16    2    1   21    6
 -2.412578053714354e-16    2    1   21    7
 -0.0166357228051544    2    1   21    8
 -0.007819018435232998    2    1   21    9
 1.83725169880344e-16    2    1   21   11
 1.297166592127719e-16    2    1   21   12
 2.009383443148609e-16    2    1   21   13
 0.04196450124971762    2    1   21   15
 -0.006823252288256575    2    1   21   16
 -1.052152568165552e-16    2    1   21   17
 -2.638738866499006e-16    2    1   21   18
 -2.068863975916488e-16    2    1   21   21
 1.193696869917206e-16    2    1   22    5
 0.007819018435232937    2    1   22    8
 -0.01663572280515435    2    1   22    9
 1.136805277007822e-16    2    1   22   11
 5.48067588499288e-16    2    1   22   13
 -1.073986125350395e-16    2    1   22   14
 0.006823252288256899    2    1   22   15
 0.04196450124971723    2    1   22   16
 2.425101346016206e-16    2    1   22   18
 1.133324950351709e-16    2    1   23    8
 -1.632396066804504e-16    2    1   23   15
 1.482284093580092e-16    2    1   23   16
 -0.06037837177025948    2    1   23   18
 1.378593040725313e-14    2    1   23   19
 2.866378501810579e-16    2    1   23   21
 -1.352212945961031e-16    2    1   23   22
 1.378067211474852e-14    2    1   24   18
 0.06037837177025955    2    1   24   19
 5.978406126665839e-14    2    1   25    1
 -0.04123115477038091    2    1   25    2
 2.356511955438668e-16    2    1   25    3
 0.003429853273620516    2    1   25    4
 -1.285281662989844e-15    2    1   25    7
 -0.003302605305177704    2    1   25   10
 9.59285261873305e-16    2    1   25   11
 -2.153884446590948e-15    2    1   25   14
 0.003801215631611295    2    1   25   17
 0.03431856345712665    2    1   25   20
 -2.523199603958905e-16    2    1   25   21
 2.714505710973928e-15    2    1   25   25
 -0.006283258067841482    2    1   26    5
 -0.009793338285101495    2    1   26    6
 1.844880043440602e-16    2    1   26    8
 -0.009605405358758555    2    1   26   12
 -0.03276264529831677    2    1   26   13
 1.510625899673379e-16    2    1   26   15
 5.018361141132e-16    2    1   26   16
 -2.04299609218305e-16    2    1   26   18
 -3.736719630326928e-16    2    1   26   20
 -0.04937527435171548    2    1   26   21
 -0.01051938169050124    2    1   26   22
 1.491788370635346e-16    2    1   26   23
 1.387436908596914e-16    2    1   26   26
 -0.009793338285101755    2    1   27    5
 0.006283258067841531    2    1   27    6
 1.684923032761943e-16    2    1   27    9
 1.821088987890599e-16    2    1   27   11
 0.03276264529831641    2    1   27   12
 -0.009605405358758647    2    1   27   13
 4.990141696570725e-16    2    1   27   16
 1.352899234225554e-16    2    1   27   18
 0.01051938169050137    2    1   27   21
 -0.04937527435171558    2    1   27   22
 -2.718849868049509e-16    2    1   27   23
 2.882868366598139e-16    2    1   27   27
 0.05601744405279346    2    1   28    1
 7.314001482477848e-14    2    1   28    2
 0.006787764915352518    2    1   28    3
 6.957858175210445e-16    2    1   28    4
 -2.093495140083714e-16    2    1   28    6
 -0.01719659071695373    2    1   28    7
 6.803504450793717e-16    2    1   28   10
 0.05263255674363102    2    1   28   11
 -2.024543134990984e-16    2    1   28   12
 1.400981630985798e-16    2    1   28   13
 -0.04443226536474812    2    1   28   14
 -2.565760379202472e-16    2    1   28   16
 -1.178150516543261e-15    2    1   28   17
 -1.476458709554604e-15    2    1   28   20
 -1.42144906187452e-16    2    1   28   21
 0.03287090861983476    2    1   28   25
 4.873699412319752e-16    2    1   28   28
 0.9347521042646616    2    2    1    1
 2.124547971600382e-12    2    2    2    1
 0.9352317654621073    2    2    2    2
 -0.07203968575002713    2    2    3    1
 -3.29250071611762e-13    2    2    3    2
 0.2896018471893968    2    2    3    3
 -4.108768564414196e-14    2    2    4    1
 -0.03255581979050184    2    2    4    2
 1.259000712930938e-13    2    2    4    3
 0.1642526134235504    2    2    4    4
 0.1734692348565799    2    2    5    5
 1.147591648752309e-16    2    2    6    1
 -3.538980483335954e-16    2    2    6    3
 1.923078296891441e-16    2    2    6    4
 -3.21911650911414e-16    2    2    6    5
 0.1734692348565796    2    2    6    6
 0.01181127903227557    2    2    7    1
 6.386090183624271e-14    2    2    7    2
 -0.04301754766035021    2    2    7    3
 8.232219180458285e-14    2    2    7    4
 0.1542623043178146    2    2    7    7
 -5.569388975025983e-15    2    2    8    5
 6.935114683648061e-14    2    2    8    6
 0.1317951480192375    2    2    8    8
 6.942173599285205e-14    2    2    9    5
 5.549842154451224e-15    2    2    9    6
 0.1317951480192376    2    2    9    9
 6.815163166607013e-14    2    2   10    1
 0.0466672723593381    2    2   10    2
 -1.448875338139127e-13    2    2   10    3
 -0.06209871439864813    2    2   10    4
 2.057092509233879e-16    2    2   10    6
 9.622069308245662e-16    2    2   10    7
 0.1641753734363088    2    2   10   10
 -0.01946669662995677    2    2   11    1
 -1.009775481437213e-13    2    2   11    2
 0.06631082895827964    2    2   11    3
 -2.460263211965673e-14    2    2   11    4
 -1.837653243617633e-16    2    2   11    5
 -2.283032282222506e-16    2    2   11    6
 -0.05228243445915592    2    2   11    7
 1.31263202473683e-16    2    2   11    8
 3.645401090766221e-14    2    2   11   10
 0.213148921445133    2    2   11   11
 1.107644537566494e-16    2    2   12    1
 -2.745696053815227e-16    2    2   12    3
 -0.04519793000232804    2    2   12    5
 0.05203788529899028    2    2   12    6
 -1.970402990575721e-16    2    2   12    7
 2.484362262808514e-14    2    2   12    8
 -1.83140372112152e-14    2    2   12    9
 2.704070029418068e-16    2    2   12   10
 2.764044870606254e-16    2    2   12   11
 0.2462267194235685    2    2   12   12
 1.313119466155906e-16    2    2   13    4
 0.05203788529899019    2    2   13    5
 0.0451979300023277    2    2   13    6
 -3.040975275694046e-16    2    2   13    7
 1.85660006102914e-14    2    2   13    8
 2.443162452870944e-14    2    2   13    9
 1.369555273087735e-16    2    2   13   10
 1.033652650224005e-16    2    2   13   11
 3.565697215301415e-16    2    2   13   12
 0.2462267194235692    2    2   13   13
 -0.03277584014997795    2    2   14    1
 -1.269147100282217e-13    2    2   14    2
 0.02456914791474775    2    2   14    3
 1.157683544537441e-13    2    2   14    4
 3.564366373474697e-16    2    2   14    6
 0.04192082172514362    2    2   14    7
 -1.547419468694752e-13    2    2   14   10
 -0.03114352518825371    2    2   14   11
 1.222643457595189e-16    2    2   14   12
 0.2288805834244514    2    2   14   14
 -5.812288794641378e-14    2    2   15    5
 -1.011715034852769e-13    2    2   15    6
 -0.03530788728712    2    2   15    8
 -0.02418432841280969    2    2   15    9
 -8.090109930712776e-14    2    2   15   12
 -2.333942658107015e-13    2    2   15   13
 0.2642691650284655    2    2   15   15
 -1.457395609918085e-16    2    2   16    3
 -1.019282154607771e-13    2    2   16    5
 5.759806107630287e-14    2    2   16    6
 1.816568643367047e-16    2    2   16    7
 0.02418432841280965    2    2   16    8
 -0.03530788728712001    2    2   16    9
 1.265518927433274e-16    2    2   16   10
 2.333563505695308e-13    2    2   16   12
 -8.073254289594242e-14    2    2   16   13
 -1.788678754877177e-16    2    2   16   15
 0.2642691650284656    2    2   16   16
 1.645395859518075e-14    2    2   17    1
 0.02580751123594661    2    2   17    2
 -5.265916270268726e-14    2    2   17    3
 -0.0363552097082959    2    2   17    4
 -4.430500688519257e-14    2    2   17    7
 -1.059572320795193e-16    2    2   17    8
 0.04813873855395304    2    2   17   10
 6.130192672507584e-14    2    2   17   11
 -2.356267697027539e-13    2    2   17   14
 0.219648868279095    2    2   17   17
 1.159632329461978e-16    2    2   18   12
 0.2443688273295243    2    2   18   18
 0.2443688273295243    2    2   19   19
 7.177304381936446e-14    2    2   20    1
 0.04404484145681713    2    2   20    2
 -1.502233965846699e-13    2    2   20    3
 -0.01543855609462678    2    2   20    4
 9.187455174709586e-14    2    2   20    7
 0.04282866424187579    2    2   20   10
 -9.588221192700373e-14    2    2   20   11
 1.517945010262541e-16    2    2   20   13
 4.292117846754915e-14    2    2   20   14
 -0.01794797861716049    2    2   20   17
 0.2564880112798422    2    2   20   20
 -3.831271420759478e-16    2    2   21    2
 -1.181868859251076e-16    2    2   21    3
 2.068923139197651e-16    2    2   21    4
 0.002813527001335215    2    2   21    5
 0.007462876737511137    2    2   21    6
 -4.950768105896298e-14    2    2   21    8
 -2.316911560722544e-14    2    2   21    9
 -2.155161982621829e-16    2    2   21   10
 0.009363947243509613    2    2   21   12
 0.01734198573160912    2    2   21   13
 1.248072294934843e-13    2    2   21   15
 -2.049031476441721e-14    2    2   21   16
 0.2542764063664926    2    2   21   21
 0.007462876737511484    2    2   22    5
 -0.002813527001335708    2    2   22    6
 2.327803064017323e-14    2    2   22    8
 -4.974549306803776e-14    2    2   22    9
 -0.01734198573160901    2    2   22   12
 0.009363947243509446    2    2   22   13
 2.044830335642879e-14    2    2   22   15
 1.247117711450263e-13    2    2   22   16
 0.254276406366493    2    2   22   22
 -1.795359256311803e-13    2    2   23   18
 0.2364146576382558    2    2   23   23
 1.797940095376364e-13    2    2   24   19
 0.2364146576382559    2    2   24   24
 -0.03607267936435562    2    2   25    1
 -1.779064298095186e-13    2    2   25    2
 0.03719562304994552    2    2   25    3
 9.322443306157386e-15    2    2   25    4
 -2.140051777831807e-16    2    2   25    6
 -0.01737949543700542    2    2   25    7
 -6.365015777782261e-15    2    2   25   10
 0.06503584291693361    2    2   25   11
 -2.415029226223816e-16    2    2   25   12
 1.293500520706184e-16    2    2   25   13
 -0.01046192436231524    2    2   25   14
 -2.121850716595013e-16    2    2   25   16
 1.033210336639424e-14    2    2   25   17
 1.008432226205447e-13    2    2   25   20
 -1.362864397193565e-16    2    2   25   21
 0.2779944857971851    2    2   25   25
 -1.868623242552102e-14    2    2   26    5
 -2.919107674057237e-14    2    2   26    6
 -0.001005842983069824    2    2   26    8
 -0.0007635094183193139    2    2   26    9
 -2.856762328744747e-14    2    2   26   12
 -9.72990798601349e-14    2    2   26   13
 0.04656723013384687    2    2   26   15
 0.002270828586292027    2    2   26   16
 -1.469469363800251e-13    2    2   26   21
 -3.120583365665582e-14    2    2   26   22
 0.2635877238645983    2    2   26   26
 -2.918146376231689e-14    2    2   27    5
 1.868433343102886e-14    2    2   27    6
 0.0007635094183192114    2    2   27    8
 -0.001005842983069941    2    2   27    9
 1.199116497242908e-16    2    2   27   11
 9.7361361719196e-14    2    2   27   12
 -2.795163735909144e-14    2    2   27   13
 -1.166993499493541e-16    2    2   27   14
 -0.002270828586292205    2    2   27   15
 0.04656723013384684    2    2   27   16
 3.129448420468191e-14    2    2   27   21
 -1.467734759702467e-13    2    2   27   22
 1.07012943752489e-16    2    2   27   26
 0.2635877238645979    2    2   27   27
 6.004920307045358e-14    2    2   28    1
 0.06753661718727648    2    2   28    2
 1.834085122956143e-14    2    2   28    3
 -0.01731349778695699    2    2   28    4
 -4.827096585162989e-14    2    2   28    7
 0.01717143175524099    2    2   28   10
 1.586693336286358e-13    2    2   28   11
 -1.259813547534316e-13    2    2   28   14
 0.08268185330378475    2    2   28   17
 -0.02373493371061478    2    2   28   20
 1.254948775021549e-16    2    2   28   21
 1.041731200777525e-13    2    2   28   25
 0.4471109201966793    2    2   28   28
 -0.07194980103650728    3    1    1    1
 1.107481107388729e-13    3    1    2    1
 -0.07203968575002714    3    1    2    2
 0.01045607841273314    3    1    3    1
 1.500453817581428e-16    3    1    3    2
 -0.0008805724356374493    3    1    3    3
 -1.260822014771537e-14    3    1    4    1
 0.004169959295091888    3    1    4    2
 2.461577025412763e-15    3    1    4    3
 -0.0009016524436253785    3    1    4    4
 0.0001972779022359447    3    1    5    5
 0.0001972779022359454    3    1    6    6
 -0.002151346210317771    3    1    7    1
 -4.27385082846808e-16    3    1    7    2
 -0.0004210114227912815    3    1    7    3
 1.194322700539127e-15    3    1    7    4
 -0.0001218368535136394    3    1    7    7
 8.059202815139602e-16    3    1    8    6
 -6.863872088434187e-05    3    1    8    8
 8.061265809900947e-16    3    1    9    5
 -6.86387208843417e-05    3    1    9    9
 1.850192669112831e-14    3    1   10    1
 -0.006325809681512852    3    1   10    2
 -3.023695402017797e-15    3    1   10    3
 0.0009388834068876379    3    1   10    4
 -0.001355306234890777    3    1   10   10
 0.003630632732974268    3    1   11    1
 -2.361149001723309e-16    3    1   11    2
 0.0004667727246302439    3    1   11    3
 -2.933042818742557e-16    3    1   11    4
 -0.0001360026612097356    3    1   11    7
 2.926745291430547e-16    3    1   11   10
 0.0003585713295079638    3    1   11   11
 6.289061396545834e-05    3    1   12    5
 -7.240806284157338e-05    3    1   12    6
 3.428730903189887e-16    3    1   12    8
 -2.526652305623913e-16    3    1   12    9
 -0.0006554877061574814    3    1   12   12
 -7.240806284157145e-05    3    1   13    5
 -6.289061396544877e-05    3    1   13    6
 2.521244741599709e-16    3    1   13    8
 3.459364144357426e-16    3    1   13    9
 -0.0006554877061574649    3    1   13   13
 0.003036633362492911    3    1   14    1
 -2.622466454374121e-16    3    1   14    2
 -0.001359837477589744    3    1   14    3
 2.467171727349352e-15    3    1   14    4
 -0.0003112548084452914    3    1   14    7
 -3.044422210587734e-15    3    1   14   10
 0.0005915270687273718    3    1   14   11
 -0.002220863942504532    3    1   14   14
 -7.898821903523332e-16    3    1   15    5
 -1.371039220071693e-15    3    1   15    6
 0.0001963041195106012    3    1   15    8
 0.0001344595686631096    3    1   15    9
 -1.28354143747499e-15    3    1   15   12
 -3.703650806542512e-15    3    1   15   13
 -0.001933634018043426    3    1   15   15
 -1.375431154208757e-15    3    1   16    5
 7.921522735607892e-16    3    1   16    6
 -0.0001344595686631088    3    1   16    8
 0.000196304119510602    3    1   16    9
 3.710985967079761e-15    3    1   16   12
 -1.305530933350579e-15    3    1   16   13
 -0.001933634018043427    3    1   16   16
 5.39765790051574e-15    3    1   17    1
 -0.001703563877461232    3    1   17    2
 -1.192271879076204e-15    3    1   17    3
 0.001051038788814146    3    1   17    4
 -9.565528012124335e-16    3    1   17    7
 -0.001178482295089518    3    1   17   10
 1.367306260177643e-15    3    1   17   11
 -4.732071955983665e-15    3    1   17   14
 -0.002372563047190337    3    1   17   17
 0.0005423393336366396    3    1   18   18
 0.0005423393336366456    3    1   19   19
 1.908651121320676e-14    3    1   20    1
 -0.006542420636271386    3    1   20    2
 -2.382211234616739e-15    3    1   20    3
 7.55504039447393e-05    3    1   20    4
 1.291550440834133e-15    3    1   20    7
 -0.000352423798706286    3    1   20   10
 -1.380229978807616e-15    3    1   20   11
 6.710469158831591e-16    3    1   20   14
 0.0002688985305526696    3    1   20   17
 -0.0008783916204002837    3    1   20   20
 0.0002702896767043282    3    1   21    5
 0.0007169430183924626    3    1   21    6
 -7.162233721987422e-16    3    1   21    8
 -3.351432450784513e-16    3    1   21    9
 0.0006702079221386192    3    1   21   12
 0.001241221882256483    3    1   21   13
 2.327858761101834e-15    3    1   21   15
 -3.944829050656879e-16    3    1   21   16
 0.0002106179822191257    3    1   21   21
 0.0007169430183924684    3    1   22    5
 -0.0002702896767043323    3    1   22    6
 3.346423130756527e-16    3    1   22    8
 -7.135705341176539e-16    3    1   22    9
 -0.001241221882256473    3    1   22   12
 0.0006702079221386182    3    1   22   13
 3.747803775749255e-16    3    1   22   15
 2.305930960359064e-15    3    1   22   16
 0.0002106179822191429    3    1   22   22
 -1.772989252057044e-15    3    1   23   18
 -1.683759217634118e-05    3    1   23   23
 1.772064558144511e-15    3    1   24   19
 -1.683759217634247e-05    3    1   24   24
 0.006373458995830477    3    1   25    1
 3.866663421907752e-16    3    1   25    2
 -0.000531848279329858    3    1   25    3
 1.014888516467656e-15    3    1   25    4
 -0.0003728910816947606    3    1   25    7
 -1.227518535532588e-15    3    1   25   10
 0.000700198293017903    3    1   25   11
 -0.0007652890663488344    3    1   25   14
 -5.635293708213324e-16    3    1   25   17
 6.068475971158153e-16    3    1   25   20