 &FCI NORB=  11,NELEC= 4,MS2=0,
  ORBSYM=1,1,1,1,1,1,1,1,1,1,1,
  ISYM=1,
 &END
 1.648635201364925    1    1    1    1
 -0.09326897053399005    1    1    2    1
 0.3404999705651567    1    1    2    2
 -0.07249182245119835    1    1    3    1
 0.009953070773218723    1    1    3    2
 0.2539915232265342    1    1    3    3
 0.2029462401633661    1    1    4    4
 0.202946240163366    1    1    5    5
 -0.02052692310899386    1    1    6    1
 -0.03885343529999621    1    1    6    2
 0.04968584594720103    1    1    6    3
 0.2039366547029165    1    1    6    6
 0.08738086524550767    1    1    7    1
 -0.03527624226084534    1    1    7    2
 -0.10012673723222    1    1    7    3
 -0.04735971888580057    1    1    7    6
 0.3032404249183416    1    1    7    7
 -0.04637881936252311    1    1    8    4
 0.07056893992054859    1    1    8    5
 0.3610424617445894    1    1    8    8
 0.07056893992054869    1    1    9    4
 0.04637881936252304    1    1    9    5
 0.3610424617445891    1    1    9    9
 -0.04053942292945664    1    1   10    1
 0.06040464927996487    1    1   10    2
 -0.001483690062357549    1    1   10    3
 -0.005442007662636416    1    1   10    6
 0.02075949789466262    1    1   10    7
 0.3468927788152876    1    1   10   10
 -0.03961477953359568    1    1   11    1
 -0.007185240933012935    1    1   11    2
 0.01160727296229692    1    1   11    3
 0.01758711612480495    1    1   11    6
 -0.002314049675048919    1    1   11    7
 0.03795968232351792    1    1   11   10
 0.2965565452373695    1    1   11   11
 -0.09326897053399005    2    1    1    1
 0.009332368152712928    2    1    2    1
 0.005550344787169369    2    1    2    2
 0.005610277706093323    2    1    3    1
 -0.002004979056729826    2    1    3    2
 -0.003446593261223826    2    1    3    3
 -0.000242828472382043    2    1    4    4
 -0.000242828472382042    2    1    5    5
 0.000236305242440477    2    1    6    1
 -0.002191602740389001    2    1    6    2
 -0.0006454721457940752    2    1    6    3
 0.0006080709222803791    2    1    6    6
 -0.005191080796439315    2    1    7    1
 0.0005046933298343481    2    1    7    2
 0.003144286806400704    2    1    7    3
 0.002600583264268444    2    1    7    6
 -0.004996091887950031    2    1    7    7
 0.0003729490036077158    2    1    8    4
 -0.000567470586590403    2    1    8    5
 -0.003601076875135766    2    1    8    8
 -0.0005674705865904066    2    1    9    4
 -0.0003729490036077163    2    1    9    5
 -0.003601076875135764    2    1    9    9
 0.006144985600671314    2    1   10    1
 -0.00185875199255878    2    1   10    2
 0.001779155503292065    2    1   10    3
 0.001237876094020241    2    1   10    6
 -0.001753245786853408    2    1   10    7
 -0.0005668380616430876    2    1   10   10
 0.004087427298591427    2    1   11    1
 -0.002411521514856635    2    1   11    2
 -0.0001758203765482357    2    1   11    3
 0.001279238977281077    2    1   11    6
 0.0006703288302788396    2    1   11    7
 0.00145662534232414    2    1   11   10
 0.007060369258609037    2    1   11   11
 0.3404999705651568    2    2    1    1
 0.005550344787169365    2    2    2    1
 0.47459106021484    2    2    2    2
 -0.006023859622651543    2    2    3    1
 -0.04321194670783658    2    2    3    2
 0.1697210880311221    2    2    3    3
 0.1811166246321766    2    2    4    4
 0.1811166246321766    2    2    5    5
 -0.007940996246010891    2    2    6    1
 -0.08321135307133795    2    2    6    2
 0.03495988393860609    2    2    6    3
 0.2199135533534629    2    2    6    6
 0.00977941566695196    2    2    7    1
 -0.02010821108725482    2    2    7    2
 -0.03150400982634942    2    2    7    3
 0.0153747822684023    2    2    7    6
 0.1832400157907873    2    2    7    7
 -0.0264265327252298    2    2    8    4
 0.04021000158753715    2    2    8    5
 0.2292966779064356    2    2    8    8
 0.04021000158753714    2    2    9    4
 0.02642653272522972    2    2    9    5
 0.2292966779064354    2    2    9    9
 0.008685396788393196    2    2   10    1
 -0.05764333911604233    2    2   10    2
 0.03762213683185055    2    2   10    3
 0.02828032032165806    2    2   10    6
 -0.003604187242499097    2    2   10    7
 0.3175098579321902    2    2   10   10
 -0.0002764349611150913    2    2   11    1
 -0.09388361146201223    2    2   11    2
 0.01675264829784943    2    2   11    3
 0.07302121024881046    2    2   11    6
 0.0139045475387556    2    2   11    7
 0.0595483989774055    2    2   11   10
 0.533512163561686    2    2   11   11
 -0.07249182245119838    3    1    1    1
 0.005610277706093328    3    1    2    1
 -0.006023859622651552    3    1    2    2
 0.005903692529082213    3    1    3    1
 0.0002478383976438699    3    1    3    2
 0.001303258809656569    3    1    3    3
 -1.337889933704656e-05    3    1    4    4
 -1.337889933704598e-05    3    1    5    5
 0.002715263898505546    3    1    6    1
 0.001624699113027013    3    1    6    2
 -0.0003054132104842755    3    1    6    3
 -0.001277265558651918    3    1    6    6
 -0.007161535340437154    3    1    7    1
 0.0004925959336749778    3    1    7    2
 -0.0006711470183770334    3    1    7    3
 -0.0006493513072263941    3    1    7    6
 0.000921822321536015    3    1    7    7
 0.00018749903328221    3    1    8    4
 -0.0002852941967200038    3    1    8    5
 -0.002203629050025164    3    1    8    8
 -0.0002852941967200062    3    1    9    4
 -0.0001874990332822103    3    1    9    5
 -0.002203629050025164    3    1    9    9
 0.0002273934328438009    3    1   10    1
 -0.0007107136275287147    3    1   10    2
 -0.001213665427129108    3    1   10    3
 0.0003822584973605604    3    1   10    6
 0.0004658962874808033    3    1   10    7
 -0.00309397661058484    3    1   10   10
 0.002945019316276493    3    1   11    1
 0.0003532376105867722    3    1   11    2
 -0.0004583527593218101    3    1   11    3
 -0.0008330607362378634    3    1   11    6
 2.455962953239941e-05    3    1   11    7
 -0.001524132627471972    3    1   11   10
 -0.005128123759196523    3    1   11   11
 0.009953070773218725    3    2    1    1
 -0.002004979056729827    3    2    2    1
 -0.0432119467078366    3    2    2    2
 0.0002478383976438666    3    2    3    1
 0.009483932698562453    3    2    3    2
 0.007571882756637756    3    2    3    3
 0.002468973265379531    3    2    4    4
 0.00246897326537953    3    2    5    5
 0.001102091641946905    3    2    6    1
 0.0127954257820901    3    2    6    2
 -0.001106635015606704    3    2    6    3
 -0.009569662582607646    3    2    6    6
 -0.0006503638109286993    3    2    7    1
 0.0003888217673845324    3    2    7    2
 -0.002959133551267383    3    2    7    3
 -0.006026780456811968    3    2    7    6
 0.006868840885517109    3    2    7    7
 -0.0006946951314659979    3    2    8    4
 0.001057032060525799    3    2    8    5
 0.003742141844085767    3    2    8    8
 0.0010570320605258    3    2    9    4
 0.0006946951314659968    3    2    9    5
 0.003742141844085763    3    2    9    9
 -0.001590076553441763    3    2   10    1
 0.01832885401256714    3    2   10    2
 -0.006095610916501878    3    2   10    3
 -0.002302037154873621    3    2   10    6
 0.0008701703352257768    3    2   10    7
 -0.01364436896165543    3    2   10   10
 -0.0003160300972560188    3    2   11    1
 0.01664702271319293    3    2   11    2
 -0.002970090710823286    3    2   11    3
 -0.01277763334165882    3    2   11    6
 -0.002764580797366574    3    2   11    7
 -0.007511049946956316    3    2   11   10
 -0.0592525898678612    3    2   11   11
 0.2539915232265342    3    3    1    1
 -0.003446593261223828    3    3    2    1
 0.169721088031122    3    3    2    2
 0.001303258809656568    3    3    3    1
 0.007571882756637726    3    3    3    2
 0.2282975889336079    3    3    3    3
 0.1686216952179648    3    3    4    4
 0.1686216952179649    3    3    5    5
 0.002373531220142155    3    3    6    1
 -0.006196734837166022    3    3    6    2
 0.008605984736008499    3    3    6    3
 0.1451781988651021    3    3    6    6
 -0.002454386442844586    3    3    7    1
 -0.01089934907252676    3    3    7    2
 -0.03938046072119637    3    3    7    3
 -0.03055426541941145    3    3    7    6
 0.2111106675729544    3    3    7    7
 -0.01790689600671862    3    3    8    4
 0.02724671920999265    3    3    8    5
 0.1933466677305479    3    3    8    8
 0.02724671920999262    3    3    9    4
 0.01790689600671854    3    3    9    5
 0.1933466677305478    3    3    9    9
 -0.005063705813859105    3    3   10    1
 0.01562685821332606    3    3   10    2
 -0.02300440532983531    3    3   10    3
 0.01053863263207681    3    3   10    6
 0.0136012934890797    3    3   10    7
 0.1900591528593907    3    3   10   10
 -0.0008262175388758216    3    3   11    1
 -0.006336245800453395    3    3   11    2
 0.006337863215476187    3    3   11    3
 0.000843220367073799    3    3   11    6
 0.0006337789233454643    3    3   11    7
 0.003404843125231717    3    3   11   10
 0.1627530482106344    3    3   11   11
 0.0003263010471943104    4    1    4    1
 0.0007878286251545713    4    1    4    2
 0.001003731113681756    4    1    4    3
 0.0005792098126599512    4    1    6    4
 -0.0002466293410130135    4    1    7    4
 -0.001078412400337516    4    1    8    1
 -0.0007037517646388421    4    1    8    2
 -0.0006257121205041568    4    1    8    3
 -0.0002572655976366239    4    1    8    6
 0.0008990355342192629    4    1    8    7
 0.001640887390731827    4    1    9    1
 0.001070812424300508    4    1    9    2
 0.0009520691049565103    4    1    9    3
 0.0003914493890267783    4    1    9    6
 -0.001367951695899021    4    1    9    7
 0.00073798133379313    4    1   10    4
 -0.0008393169458053045    4    1   10    8
 0.001277085271616343    4    1   10    9
 1.240902442396245e-05    4    1   11    4
 -0.0001827429157122529    4    1   11    8
 0.0002780573981196385    4    1   11    9
 0.0007878286251545714    4    2    4    1
 0.009802271328509228    4    2    4    2
 0.00910240702272886    4    2    4    3
 0.00926944433913331    4    2    6    4
 0.004617692225432106    4    2    7    4
 -0.001889380495812135    4    2    8    1
 -0.005231365720839852    4    2    8    2
 -0.002524623111206114    4    2    8    3
 -0.0003157542118399135    4    2    8    6
 0.005164340498452805    4    2    8    7
 0.00287483770670892    4    2    9    1
 0.007959925205743347    4    2    9    2
 0.003841408192479706    4    2    9    3
 0.0004804443129700739    4    2    9    6
 -0.007857941176033134    4    2    9    7
 0.006635850695822996    4    2   10    4
 -0.006362101826866568    4    2   10    8
 0.009680427138068822    4    2   10    9
 5.958864213553234e-05    4    2   11    4
 -0.001652399339846001    4    2   11    8
 0.002514252655438942    4    2   11    9
 0.001003731113681756    4    3    4    1
 0.009102407022728862    4    3    4    2
 0.0249906117198516    4    3    4    3
 0.0094169153905409    4    3    6    4
 0.007889829447082422    4    3    7    4
 -0.002345944887418554    4    3    8    1
 -0.004251778535401308    4    3    8    2
 -0.004608327370873031    4    3    8    3
 -0.002857694110822713    4    3    8    6
 0.01085314456093794    4    3    8    7
 0.003569535535674579    4    3    9    1
 0.006469407978562439    4    3    9    2
 0.007011924448256713    4    3    9    3
 0.004348201329611899    4    3    9    6
 -0.01651389399292796    4    3    9    7
 0.005430864443604259    4    3   10    4
 -0.006134326096158386    4    3   10    8
 0.00933384884917228    4    3   10    9
 -0.003031172201835067    4    3   11    4
 -0.0003648221526709595    4    3   11    8
 0.0005551049579827355    4    3   11    9
 0.2029462401633661    4    4    1    1
 -0.0002428284723820424    4    4    2    1
 0.1811166246321765    4    4    2    2
 -1.337889933704916e-05    4    4    3    1
 0.002468973265379536    4    4    3    2
 0.1686216952179649    4    4    3    3
 0.1754651923752212    4    4    4    4
 0.1540350823845383    4    4    5    5
 -2.808335818453626e-05    4    4    6    1
 -0.004051083584216872    4    4    6    2
 0.01386889213944733    4    4    6    3
 0.1478913467842858    4    4    6    6
 0.0002570386626604371    4    4    7    1
 -0.005270995921238159    4    4    7    2
 -0.01868636859652052    4    4    7    3
 -0.002568531609414647    4    4    7    6
 0.1676235480752493    4    4    7    7
 -0.01318881656638843    4    4    8    4
 0.01915478576636943    4    4    8    5
 0.1727336352140295    4    4    8    8
 0.02006779854876328    4    4    9    4
 0.01258877276584381    4    4    9    5
 -0.007041886501682412    4    4    9    8
 0.1788203881866842    4    4    9    9
 0.0001808515967175869    4    4   10    1
 0.01137534522146863    4    4   10    2
 0.002093765618125841    4    4   10    3
 0.01086171925415436    4    4   10    6
 0.001359416607961196    4    4   10    7
 0.1800525506342111    4    4   10   10
 2.068833203759708e-07    4    4   11    1
 -0.002127980323107858    4    4   11    2
 -0.001068218207055054    4    4   11    3
 0.00288381627451024    4    4   11    6
 -0.0004010035718861813    4    4   11    7
 0.004581616302423666    4    4   11   10
 0.1738687792560875    4    4   11   11
 0.0003263010471943072    5    1    5    1
 0.0007878286251545677    5    1    5    2
 0.001003731113681752    5    1    5    3
 0.0005792098126599491    5    1    6    5
 -0.0002466293410130113    5    1    7    5
 0.001640887390731813    5    1    8    1
 0.001070812424300503    5    1    8    2
 0.0009520691049565056    5    1    8    3
 0.0003914493890267763    5    1    8    6
 -0.001367951695899014    5    1    8    7
 0.001078412400337518    5    1    9    1
 0.0007037517646388427    5    1    9    2
 0.0006257121205041565    5    1    9    3
 0.0002572655976366235    5    1    9    6
 -0.0008990355342192648    5    1    9    7
 0.0007379813337931265    5    1   10    5
 0.001277085271616338    5    1   10    8
 0.0008393169458053053    5    1   10    9
 1.240902442396191e-05    5    1   11    5
 0.0002780573981196376    5    1   11    8
 0.0001827429157122531    5    1   11    9
 0.0007878286251545678    5    2    5    1
 0.009802271328509216    5    2    5    2
 0.009102407022728853    5    2    5    3
 0.009269444339133313    5    2    6    5
 0.004617692225432117    5    2    7    5
 0.002874837706708916    5    2    8    1
 0.007959925205743349    5    2    8    2
 0.003841408192479709    5    2    8    3
 0.0004804443129700809    5    2    8    6
 -0.007857941176033129    5    2    8    7
 0.001889380495812136    5    2    9    1
 0.00523136572083985    5    2    9    2
 0.002524623111206108    5    2    9    3
 0.0003157542118399066    5    2    9    6
 -0.005164340498452821    5    2    9    7
 0.006635850695822985    5    2   10    5
 0.009680427138068822    5    2   10    8
 0.006362101826866572    5    2   10    9
 5.958864213552775e-05    5    2   11    5
 0.00251425265543894    5    2   11    8
 0.001652399339846003    5    2   11    9
 0.001003731113681752    5    3    5    1
 0.009102407022728855    5    3    5    2
 0.02499061171985161    5    3    5    3
 0.0094169153905409    5    3    6    5
 0.007889829447082448    5    3    7    5
 0.003569535535674575    5    3    8    1
 0.006469407978562449    5    3    8    2
 0.007011924448256743    5    3    8    3
 0.004348201329611914    5    3    8    6
 -0.01651389399292794    5    3    8    7
 0.002345944887418555    5    3    9    1
 0.004251778535401303    5    3    9    2
 0.00460832737087302    5    3    9    3
 0.00285769411082271    5    3    9    6
 -0.01085314456093794    5    3    9    7
 0.005430864443604248    5    3   10    5
 0.009333848849172301    5    3   10    8
 0.006134326096158384    5    3   10    9
 -0.003031172201835068    5    3   11    5
 0.0005551049579827258    5    3   11    8
 0.0003648221526709615    5    3   11    9
 0.01071505499534149    5    4    5    4
 0.000456506391196926    5    4    8    4
 -0.0003000219002721831    5    4    8    5
 -0.007041886501682556    5    4    8    8
 0.0003000219002722256    5    4    9    4
 0.0004565063911969368    5    4    9    5
 0.00304337648632727    5    4    9    8
 0.007041886501682559    5    4    9    9
 0.202946240163366    5    5    1    1
 -0.0002428284723820427    5    5    2    1
 0.1811166246321766    5    5    2    2
 -1.337889933704248e-05    5    5    3    1
 0.002468973265379527    5    5    3    2
 0.1686216952179649    5    5    3    3
 0.1540350823845383    5    5    4    4
 0.1754651923752213    5    5    5    5
 -2.808335818453423e-05    5    5    6    1
 -0.004051083584216871    5    5    6    2
 0.01386889213944733    5    5    6    3
 0.1478913467842858    5    5    6    6
 0.0002570386626604372    5    5    7    1
 -0.005270995921238138    5    5    7    2
 -0.01868636859652048    5    5    7    3
 -0.002568531609414647    5    5    7    6
 0.1676235480752494    5    5    7    7
 -0.01258877276584386    5    5    8    4
 0.02006779854876329    5    5    8    5
 0.1788203881866843    5    5    8    8
 0.0191547857663694    5    5    9    4
 0.01318881656638832    5    5    9    5
 0.007041886501682433    5    5    9    8
 0.1727336352140296    5    5    9    9
 0.0001808515967175725    5    5   10    1
 0.01137534522146862    5    5   10    2
 0.002093765618125813    5    5   10    3
 0.01086171925415425    5    5   10    6
 0.001359416607961189    5    5   10    7
 0.1800525506342112    5    5   10   10
 2.06883320383307e-07    5    5   11    1
 -0.002127980323107825    5    5   11    2
 -0.001068218207055071    5    5   11    3
 0.002883816274510238    5    5   11    6
 -0.0004010035718862112    5    5   11    7
 0.004581616302423583    5    5   11   10
 0.1738687792560875    5    5   11   11
 -0.02052692310899387    6    1    1    1
 0.0002363052424404805    6    1    2    1
 -0.007940996246010898    6    1    2    2
 0.002715263898505545    6    1    3    1
 0.001102091641946908    6    1    3    2
 0.002373531220142155    6    1    3    3
 -2.808335818453171e-05    6    1    4    4
 -2.808335818453159e-05    6    1    5    5
 0.002689703392390209    6    1    6    1
 0.00252507580770792    6    1    6    2
 1.912429900375771e-05    6    1    6    3
 -0.001451308184015288    6    1    6    6
 -0.004402798349362171    6    1    7    1
 0.000212157773675468    6    1    7    2
 -0.001901358777939828    6    1    7    3
 -0.001663182116884379    6    1    7    6
 0.002827325422953861    6    1    7    7
 4.652654239662569e-05    6    1    8    4
 -7.079371187597452e-05    6    1    8    5
 -0.0005527186507780575    6    1    8    8
 -7.079371187597508e-05    6    1    9    4
 -4.652654239662576e-05    6    1    9    5
 -0.0005527186507780573    6    1    9    9
 -0.003516715985318376    6    1   10    1
 -5.909975657716059e-05    6    1   10    2
 -0.001746293899678244    6    1   10    3
 -0.0001821865335332099    6    1   10    6
 0.001148168495355072    6    1   10    7
 -0.002603421451926624    6    1   10   10
 0.0005698686503878302    6    1   11    1
 0.00132521288019988    6    1   11    2
 -0.0003288917097321717    6    1   11    3
 -0.001213333416435659    6    1   11    6
 -0.0002952301660029937    6    1   11    7
 -0.002100870630946344    6    1   11   10
 -0.007579233371660869    6    1   11   11
 -0.03885343529999623    6    2    1    1
 -0.002191602740389001    6    2    2    1
 -0.08321135307133797    6    2    2    2
 0.001624699113027013    6    2    3    1
 0.01279542578209011    6    2    3    2
 -0.006196734837166011    6    2    3    3
 -0.004051083584216878    6    2    4    4
 -0.004051083584216871    6    2    5    5
 0.002525075807707919    6    2    6    1
 0.02840586980982224    6    2    6    2
 -0.005863439893616964    6    2    6    3
 -0.01478499399236789    6    2    6    6
 -0.002773149555516022    6    2    7    1
 0.006072378660941334    6    2    7    2
 0.002233895849544868    6    2    7    3
 -0.0004731874676949644    6    2    7    6
 -0.006598510935327893    6    2    7    7
 0.003296001851273989    6    2    8    4
 -0.00501512026001512    6    2    8    5
 -0.01456802638253023    6    2    8    8
 -0.005015120260015129    6    2    9    4
 -0.003296001851273989    6    2    9    5
 -0.01456802638253021    6    2    9    9
 -0.002682836221778519    6    2   10    1
 0.01898501399865483    6    2   10    2
 -0.006590252871335068    6    2   10    3
 -0.007192835964994232    6    2   10    6
 -0.0003171303609410489    6    2   10    7
 -0.03365219969805296    6    2   10   10
 -8.509713738914077e-06    6    2   11    1
 0.03949503383481238    6    2   11    2
 -0.008457331502597042    6    2   11    3
 -0.02178338829753182    6    2   11    6
 -0.00398521108721672    6    2   11    7
 -0.02265623926552626    6    2   11   10
 -0.1071196375308713    6    2   11   11
 0.04968584594720097    6    3    1    1
 -0.000645472145794077    6    3    2    1
 0.03495988393860611    6    3    2    2
 -0.0003054132104842752    6    3    3    1
 -0.001106635015606706    6    3    3    2
 0.008605984736008493    6    3    3    3
 0.01386889213944734    6    3    4    4
 0.01386889213944733    6    3    5    5
 1.912429900376395e-05    6    3    6    1
 -0.005863439893616939    6    3    6    2
 0.01090790639525631    6    3    6    3
 0.01171261086041759    6    3    6    6
 0.0003452047859618841    6    3    7    1
 -0.003455119440086231    6    3    7    2
 -0.01280206807095824    6    3    7    3
 0.001233797372295087    6    3    7    6
 0.01775881803903911    6    3    7    7
 -0.005317934842629044    6    3    8    4
 0.008091646781205712    6    3    8    5
 0.02494885240117627    6    3    8    8
 0.008091646781205719    6    3    9    4
 0.005317934842629039    6    3    9    5
 0.02494885240117625    6    3    9    9
 -0.0007111319381810313    6    3   10    1
 0.00121949271471141    6    3   10    2
 0.004954807061596373    6    3   10    3
 0.002746480403182853    6    3   10    6
 0.001051678476663976    6    3   10    7
 0.02662420714967639    6    3   10   10
 -0.0002687194269770967    6    3   11    1
 -0.008035495264854564    6    3   11    2
 -0.0001996433334794126    6    3   11    3
 0.005097145578878155    6    3   11    6
 -0.0002319410562403936    6    3   11    7
 0.006308983404884412    6    3   11   10
 0.03643577950789463    6    3   11   11
 0.0005792098126599512    6    4    4    1
 0.009269444339133313    6    4    4    2
 0.009416915390540901    6    4    4    3
 0.01469659928819592    6    4    6    4
 0.007329274282608    6    4    7    4
 -0.001337190293044227    6    4    8    1
 -0.003347790295179986    6    4    8    2
 -0.002633828671180447    6    4    8    3
 0.0008902607119713439    6    4    8    6
 0.005477318401754906    6    4    8    7
 0.002034637852994395    6    4    9    1
 0.005093920359647109    6    4    9    2
 0.004007572849250723    6    4    9    3
 -0.001354600129116212    6    4    9    6
 -0.008334161122081013    6    4    9    7
 0.006214681594467182    6    4   10    4
 -0.005654312778202786    6    4   10    8
 0.008603471675680771    6    4   10    9
 -0.002336877419427867    6    4   11    4
 -0.001235280347227572    6    4   11    8
 0.001879574034154432    6    4   11    9
 0.0005792098126599491    6    5    5    1
 0.009269444339133313    6    5    5    2
 0.0094169153905409    6    5    5    3
 0.01469659928819594    6    5    6    5
 0.007329274282608016    6    5    7    5
 0.002034637852994394    6    5    8    1
 0.005093920359647119    6    5    8    2
 0.004007572849250726    6    5    8    3
 -0.001354600129116203    6    5    8    6
 -0.008334161122081008    6    5    8    7
 0.001337190293044227    6    5    9    1
 0.003347790295179981    6    5    9    2
 0.002633828671180442    6    5    9    3
 -0.0008902607119713559    6    5    9    6
 -0.005477318401754916    6    5    9    7
 0.006214681594467173    6    5   10    5
 0.00860347167568078    6    5   10    8
 0.005654312778202782    6    5   10    9
 -0.002336877419427873    6    5   11    5
 0.001879574034154433    6    5   11    8
 0.001235280347227576    6    5   11    9
 0.2039366547029166    6    6    1    1
 0.000608070922280375    6    6    2    1
 0.2199135533534629    6    6    2    2
 -0.001277265558651931    6    6    3    1
 -0.009569662582607653    6    6    3    2
 0.1451781988651021    6    6    3    3
 0.1478913467842858    6    6    4    4
 0.1478913467842858    6    6    5    5
 -0.001451308184015285    6    6    6    1
 -0.01478499399236785    6    6    6    2
 0.0117126108604176    6    6    6    3
 0.1633934745609466    6    6    6    6
 0.002120945056483502    6    6    7    1
 -0.004252703151225226    6    6    7    2
 -0.01728647448804838    6    6    7    3
 0.007236603430588218    6    6    7    6
 0.1510403768816462    6    6    7    7
 -0.01067910515955955    6    6    8    4
 0.01624907966111666    6    6    8    5
 0.1619903850026686    6    6    8    8
 0.01624907966111663    6    6    9    4
 0.01067910515955948    6    6    9    5
 0.1619903850026685    6    6    9    9
 0.001073401051035893    6    6   10    1
 -0.01067949218764746    6    6   10    2
 0.009585234646789164    6    6   10    3
 0.005220778203080319    6    6   10    6
 7.028295537456775e-05    6    6   10    7
 0.1890158654137342    6    6   10   10
 -0.0001119606518235006    6    6   11    1
 -0.01494683695485025    6    6   11    2
 0.001940775513333887    6    6   11    3
 0.01680178672927993    6    6   11    6
 0.003179105039185239    6    6   11    7
 0.009583533247902285    6    6   11   10
 0.229915907179442    6    6   11   11
 0.0873808652455077    7    1    1    1
 -0.005191080796439307    7    1    2    1
 0.009779415666951929    7    1    2    2
 -0.007161535340437162    7    1    3    1
 -0.0006503638109286959    7    1    3    2
 -0.002454386442844584    7    1    3    3
 0.0002570386626604391    7    1    4    4
 0.000257038662660438    7    1    5    5
 -0.004402798349362178    7    1    6    1
 -0.002773149555516021    7    1    6    2
 0.0003452047859618732    7    1    6    3
 0.002120945056483506    7    1    6    6
 0.01034305581890037    7    1    7    1
 -0.0005677930933765785    7    1    7    2
 0.001562935446582117    7    1    7    3
 0.001348027866776352    7    1    7    6
 -0.002056060998922844    7    1    7    7
 -0.0003960489397066509    7    1    8    4
 0.0006026189156151713    7    1    8    5
 0.003946615432033251    7    1    8    8
 0.0006026189156151751    7    1    9    4
 0.0003960489397066514    7    1    9    5
 0.003946615432033247    7    1    9    9
 0.002193664841244548    7    1   10    1
 0.001579429072482373    7    1   10    2
 0.002157891255093201    7    1   10    3
 -0.0005411103072542945    7    1   10    6
 -0.001055145354692485    7    1   10    7
 0.005183577649713691    7    1   10   10
 -0.00275497045844785    7    1   11    1
 -0.0004020041340679387    7    1   11    2
 0.000481584009365517    7    1   11    3
 0.001105603883705035    7    1   11    6
 0.000111846782431989    7    1   11    7
 0.002596917094489797    7    1   11   10
 0.008049840522970591    7    1   11   11
 -0.03527624226084534    7    2    1    1
 0.0005046933298343495    7    2    2    1
 -0.02010821108725483    7    2    2    2
 0.0004925959336749724    7    2    3    1
 0.000388821767384532    7    2    3    2
 -0.01089934907252674    7    2    3    3
 -0.005270995921238164    7    2    4    4
 -0.005270995921238156    7    2    5    5
 0.000212157773675462    7    2    6    1
 0.006072378660941325    7    2    6    2
 -0.00345511944008624    7    2    6    3
 -0.004252703151225203    7    2    6    6
 -0.0005677930933765937    7    2    7    1
 0.003830557816708496    7    2    7    2
 0.006703024984244604    7    2    7    3
 0.004330399024117137    7    2    7    6
 -0.01214351446895865    7    2    7    7
 0.003695494819989722    7    2    8    4
 -0.005622979530593338    7    2    8    5
 -0.01567708342534999    7    2    8    8
 -0.005622979530593345    7    2    9    4
 -0.003695494819989721    7    2    9    5
 -0.01567708342534997    7    2    9    9
 7.907264130800418e-05    7    2   10    1
 -0.002324612106958158    7    2   10    2
 -0.0002577336346785664    7    2   10    3
 -0.002037663067679919    7    2   10    6
 -0.0001740396964979128    7    2   10    7
 -0.01506779361023963    7    2   10   10
 0.0003001053326035074    7    2   11    1
 0.007501174838090346    7    2   11    2
 -0.002015919845461069    7    2   11    3
 -0.00332768981661547    7    2   11    6
 -0.0004577260823398928    7    2   11    7
 -0.005954994800483148    7    2   11   10
 -0.02070958602789781    7    2   11   11
 -0.1001267372322201    7    3    1    1
 0.003144286806400688    7    3    2    1
 -0.03150400982634949    7    3    2    2
 -0.0006711470183770518    7    3    3    1
 -0.002959133551267402    7    3    3    2
 -0.03938046072119637    7    3    3    3
 -0.01868636859652054    7    3    4    4
 -0.01868636859652052    7    3    5    5
 -0.001901358777939842    7    3    6    1
 0.002233895849544904    7    3    6    2
 -0.0128020680709582    7    3    6    3
 -0.01728647448804854    7    3    6    6
 0.001562935446582111    7    3    7    1
 0.006703024984244643    7    3    7    2
 0.03444328972736926    7    3    7    3
 0.01150782008865453    7    3    7    6
 -0.04901152493706534    7    3    7    7
 0.01067445327902872    7    3    8    4
 -0.01624200146718657    7    3    8    5
 -0.04503834537289943    7    3    8    8
 -0.01624200146718659    7    3    9    4
 -0.01067445327902872    7    3    9    5
 -0.04503834537289937    7    3    9    9
 0.004470402459559641    7    3   10    1
 -0.008302765642338884    7    3   10    2
 0.006608869652761531    7    3   10    3
 0.0008313409678596409    7    3   10    6
 -0.008167336974407751    7    3   10    7